TITLE="LBM output"
VARIABLES = "X", "Y", "U","V","density","f0","f1","f2","f3","f4","f5","f6","f7","f8","feq0","feq1","feq2","feq3","feq4","feq5","feq6","feq7","feq8",
ZONE T = "fluid", I=40, J=40, F=POINT
SOLUTIONTIME=304
    0.00000e+00    0.00000e+00    0.00000e+00    0.00000e+00    4.99776e+00    2.22138e+00    5.55292e-01    5.55293e-01    5.55292e-01    5.55293e-01    1.38758e-01    1.38850e-01    1.38758e-01    1.38850e-01    0.00000e+00    0.00000e+00    0.00000e+00    0.00000e+00    0.00000e+00    0.00000e+00    0.00000e+00    0.00000e+00    0.00000e+00
    1.00000e+00    0.00000e+00    0.00000e+00    0.00000e+00    4.99709e+00    2.22106e+00    5.55366e-01    5.55144e-01    5.55245e-01    5.55144e-01    1.38740e-01    1.38825e-01    1.38740e-01    1.38825e-01    0.00000e+00    0.00000e+00    0.00000e+00    0.00000e+00    0.00000e+00    0.00000e+00    0.00000e+00    0.00000e+00    0.00000e+00
    2.00000e+00    0.00000e+00    0.00000e+00    0.00000e+00    4.99674e+00    2.22090e+00    5.55275e-01    5.55111e-01    5.55238e-01    5.55111e-01    1.38736e-01    1.38820e-01    1.38736e-01    1.38820e-01    0.00000e+00    0.00000e+00    0.00000e+00    0.00000e+00    0.00000e+00    0.00000e+00    0.00000e+00    0.00000e+00    0.00000e+00
    3.00000e+00    0.00000e+00    0.00000e+00    0.00000e+00    4.99668e+00    2.22087e+00    5.55240e-01    5.55094e-01    5.55242e-01    5.55094e-01    1.38743e-01    1.38830e-01    1.38743e-01    1.38830e-01    0.00000e+00    0.00000e+00    0.00000e+00    0.00000e+00    0.00000e+00    0.00000e+00    0.00000e+00    0.00000e+00    0.00000e+00
    4.00000e+00    0.00000e+00    0.00000e+00    0.00000e+00    4.99671e+00    2.22088e+00    5.55238e-01    5.55086e-01    5.55254e-01    5.55086e-01    1.38759e-01    1.38824e-01    1.38759e-01    1.38824e-01    0.00000e+00    0.00000e+00    0.00000e+00    0.00000e+00    0.00000e+00    0.00000e+00    0.00000e+00    0.00000e+00    0.00000e+00
    5.00000e+00    0.00000e+00    0.00000e+00    0.00000e+00    4.99681e+00    2.22092e+00    5.55244e-01    5.55090e-01    5.55275e-01    5.55090e-01    1.38785e-01    1.38811e-01    1.38785e-01    1.38811e-01    0.00000e+00    0.00000e+00    0.00000e+00    0.00000e+00    0.00000e+00    0.00000e+00    0.00000e+00    0.00000e+00    0.00000e+00
    6.00000e+00    0.00000e+00    0.00000e+00    0.00000e+00    4.99701e+00    2.22101e+00    5.55258e-01    5.55105e-01    5.55307e-01    5.55105e-01    1.38818e-01    1.38794e-01    1.38818e-01    1.38794e-01    0.00000e+00    0.00000e+00    0.00000e+00    0.00000e+00    0.00000e+00    0.00000e+00    0.00000e+00    0.00000e+00    0.00000e+00
    7.00000e+00    0.00000e+00    0.00000e+00    0.00000e+00    4.99731e+00    2.22114e+00    5.55282e-01    5.55134e-01    5.55350e-01    5.55134e-01    1.38858e-01    1.38775e-01    1.38858e-01    1.38775e-01    0.00000e+00    0.00000e+00    0.00000e+00    0.00000e+00    0.00000e+00    0.00000e+00    0.00000e+00    0.00000e+00    0.00000e+00
    8.00000e+00    0.00000e+00    0.00000e+00    0.00000e+00    4.99770e+00    2.22132e+00    5.55316e-01    5.55176e-01    5.55403e-01    5.55176e-01    1.38903e-01    1.38754e-01    1.38903e-01    1.38754e-01    0.00000e+00    0.00000e+00    0.00000e+00    0.00000e+00    0.00000e+00    0.00000e+00    0.00000e+00    0.00000e+00    0.00000e+00
    9.00000e+00    0.00000e+00    0.00000e+00    0.00000e+00    4.99820e+00    2.22153e+00    5.55361e-01    5.55231e-01    5.55466e-01    5.55231e-01    1.38951e-01    1.38735e-01    1.38951e-01    1.38735e-01    0.00000e+00    0.00000e+00    0.00000e+00    0.00000e+00    0.00000e+00    0.00000e+00    0.00000e+00    0.00000e+00    0.00000e+00
    1.00000e+01    0.00000e+00    0.00000e+00    0.00000e+00    4.99879e+00    2.22179e+00    5.55417e-01    5.55300e-01    5.55539e-01    5.55300e-01    1.39001e-01    1.38717e-01    1.39001e-01    1.38717e-01    0.00000e+00    0.00000e+00    0.00000e+00    0.00000e+00    0.00000e+00    0.00000e+00    0.00000e+00    0.00000e+00    0.00000e+00
    1.10000e+01    0.00000e+00    0.00000e+00    0.00000e+00    4.99947e+00    2.22209e+00    5.55482e-01    5.55381e-01    5.55621e-01    5.55381e-01    1.39053e-01    1.38703e-01    1.39053e-01    1.38703e-01    0.00000e+00    0.00000e+00    0.00000e+00    0.00000e+00    0.00000e+00    0.00000e+00    0.00000e+00    0.00000e+00    0.00000e+00
    1.20000e+01    0.00000e+00    0.00000e+00    0.00000e+00    5.00024e+00    2.22243e+00    5.55557e-01    5.55474e-01    5.55711e-01    5.55474e-01    1.39104e-01    1.38693e-01    1.39104e-01    1.38693e-01    0.00000e+00    0.00000e+00    0.00000e+00    0.00000e+00    0.00000e+00    0.00000e+00    0.00000e+00    0.00000e+00    0.00000e+00
    1.30000e+01    0.00000e+00    0.00000e+00    0.00000e+00    5.00109e+00    2.22280e+00    5.55641e-01    5.55577e-01    5.55808e-01    5.55577e-01    1.39154e-01    1.38688e-01    1.39154e-01    1.38688e-01    0.00000e+00    0.00000e+00    0.00000e+00    0.00000e+00    0.00000e+00    0.00000e+00    0.00000e+00    0.00000e+00    0.00000e+00
    1.40000e+01    0.00000e+00    0.00000e+00    0.00000e+00    5.00201e+00    2.22320e+00    5.55732e-01    5.55691e-01    5.55911e-01    5.55691e-01    1.39202e-01    1.38689e-01    1.39202e-01    1.38689e-01    0.00000e+00    0.00000e+00    0.00000e+00    0.00000e+00    0.00000e+00    0.00000e+00    0.00000e+00    0.00000e+00    0.00000e+00
    1.50000e+01    0.00000e+00    0.00000e+00    0.00000e+00    5.00300e+00    2.22363e+00    5.55831e-01    5.55814e-01    5.56020e-01    5.55814e-01    1.39248e-01    1.38696e-01    1.39248e-01    1.38696e-01    0.00000e+00    0.00000e+00    0.00000e+00    0.00000e+00    0.00000e+00    0.00000e+00    0.00000e+00    0.00000e+00    0.00000e+00
    1.60000e+01    0.00000e+00    0.00000e+00    0.00000e+00    5.00403e+00    2.22408e+00    5.55935e-01    5.55944e-01    5.56132e-01    5.55944e-01    1.39290e-01    1.38709e-01    1.39290e-01    1.38709e-01    0.00000e+00    0.00000e+00    0.00000e+00    0.00000e+00    0.00000e+00    0.00000e+00    0.00000e+00    0.00000e+00    0.00000e+00
    1.70000e+01    0.00000e+00    0.00000e+00    0.00000e+00    5.00512e+00    2.22455e+00    5.56045e-01    5.56081e-01    5.56248e-01    5.56081e-01    1.39328e-01    1.38729e-01    1.39328e-01    1.38729e-01    0.00000e+00    0.00000e+00    0.00000e+00    0.00000e+00    0.00000e+00    0.00000e+00    0.00000e+00    0.00000e+00    0.00000e+00
    1.80000e+01    0.00000e+00    0.00000e+00    0.00000e+00    5.00623e+00    2.22503e+00    5.56158e-01    5.56224e-01    5.56366e-01    5.56224e-01    1.39363e-01    1.38755e-01    1.39363e-01    1.38755e-01    0.00000e+00    0.00000e+00    0.00000e+00    0.00000e+00    0.00000e+00    0.00000e+00    0.00000e+00    0.00000e+00    0.00000e+00
    1.90000e+01    0.00000e+00    0.00000e+00    0.00000e+00    5.00737e+00    2.22552e+00    5.56274e-01    5.56370e-01    5.56485e-01    5.56370e-01    1.39393e-01    1.38787e-01    1.39393e-01    1.38787e-01    0.00000e+00    0.00000e+00    0.00000e+00    0.00000e+00    0.00000e+00    0.00000e+00    0.00000e+00    0.00000e+00    0.00000e+00
    2.00000e+01    0.00000e+00    0.00000e+00    0.00000e+00    5.00853e+00    2.22601e+00    5.56392e-01    5.56518e-01    5.56604e-01    5.56518e-01    1.39418e-01    1.38825e-01    1.39418e-01    1.38825e-01    0.00000e+00    0.00000e+00    0.00000e+00    0.00000e+00    0.00000e+00    0.00000e+00    0.00000e+00    0.00000e+00    0.00000e+00
    2.10000e+01    0.00000e+00    0.00000e+00    0.00000e+00    5.00969e+00    2.22650e+00    5.56511e-01    5.56668e-01    5.56721e-01    5.56668e-01    1.39438e-01    1.38869e-01    1.39438e-01    1.38869e-01    0.00000e+00    0.00000e+00    0.00000e+00    0.00000e+00    0.00000e+00    0.00000e+00    0.00000e+00    0.00000e+00    0.00000e+00
    2.20000e+01    0.00000e+00    0.00000e+00    0.00000e+00    5.01084e+00    2.22699e+00    5.56630e-01    5.56818e-01    5.56837e-01    5.56818e-01    1.39454e-01    1.38918e-01    1.39454e-01    1.38918e-01    0.00000e+00    0.00000e+00    0.00000e+00    0.00000e+00    0.00000e+00    0.00000e+00    0.00000e+00    0.00000e+00    0.00000e+00
    2.30000e+01    0.00000e+00    0.00000e+00    0.00000e+00    5.01197e+00    2.22747e+00    5.56747e-01    5.56965e-01    5.56950e-01    5.56965e-01    1.39465e-01    1.38971e-01    1.39465e-01    1.38971e-01    0.00000e+00    0.00000e+00    0.00000e+00    0.00000e+00    0.00000e+00    0.00000e+00    0.00000e+00    0.00000e+00    0.00000e+00
    2.40000e+01    0.00000e+00    0.00000e+00    0.00000e+00    5.01308e+00    2.22794e+00    5.56862e-01    5.57109e-01    5.57058e-01    5.57109e-01    1.39472e-01    1.39028e-01    1.39472e-01    1.39028e-01    0.00000e+00    0.00000e+00    0.00000e+00    0.00000e+00    0.00000e+00    0.00000e+00    0.00000e+00    0.00000e+00    0.00000e+00
    2.50000e+01    0.00000e+00    0.00000e+00    0.00000e+00    5.01415e+00    2.22839e+00    5.56974e-01    5.57248e-01    5.57162e-01    5.57248e-01    1.39474e-01    1.39088e-01    1.39474e-01    1.39088e-01    0.00000e+00    0.00000e+00    0.00000e+00    0.00000e+00    0.00000e+00    0.00000e+00    0.00000e+00    0.00000e+00    0.00000e+00
    2.60000e+01    0.00000e+00    0.00000e+00    0.00000e+00    5.01517e+00    2.22882e+00    5.57081e-01    5.57381e-01    5.57259e-01    5.57381e-01    1.39473e-01    1.39149e-01    1.39473e-01    1.39149e-01    0.00000e+00    0.00000e+00    0.00000e+00    0.00000e+00    0.00000e+00    0.00000e+00    0.00000e+00    0.00000e+00    0.00000e+00
    2.70000e+01    0.00000e+00    0.00000e+00    0.00000e+00    5.01613e+00    2.22923e+00    5.57183e-01    5.57505e-01    5.57350e-01    5.57505e-01    1.39469e-01    1.39211e-01    1.39469e-01    1.39211e-01    0.00000e+00    0.00000e+00    0.00000e+00    0.00000e+00    0.00000e+00    0.00000e+00    0.00000e+00    0.00000e+00    0.00000e+00
    2.80000e+01    0.00000e+00    0.00000e+00    0.00000e+00    5.01702e+00    2.22960e+00    5.57280e-01    5.57620e-01    5.57433e-01    5.57620e-01    1.39461e-01    1.39273e-01    1.39461e-01    1.39273e-01    0.00000e+00    0.00000e+00    0.00000e+00    0.00000e+00    0.00000e+00    0.00000e+00    0.00000e+00    0.00000e+00    0.00000e+00
    2.90000e+01    0.00000e+00    0.00000e+00    0.00000e+00    5.01783e+00    2.22994e+00    5.57368e-01    5.57724e-01    5.57506e-01    5.57724e-01    1.39452e-01    1.39333e-01    1.39452e-01    1.39333e-01    0.00000e+00    0.00000e+00    0.00000e+00    0.00000e+00    0.00000e+00    0.00000e+00    0.00000e+00    0.00000e+00    0.00000e+00
    3.00000e+01    0.00000e+00    0.00000e+00    0.00000e+00    5.01856e+00    2.23024e+00    5.57449e-01    5.57816e-01    5.57570e-01    5.57816e-01    1.39441e-01    1.39390e-01    1.39441e-01    1.39390e-01    0.00000e+00    0.00000e+00    0.00000e+00    0.00000e+00    0.00000e+00    0.00000e+00    0.00000e+00    0.00000e+00    0.00000e+00
    3.10000e+01    0.00000e+00    0.00000e+00    0.00000e+00    5.01918e+00    2.23050e+00    5.57521e-01    5.57894e-01    5.57623e-01    5.57894e-01    1.39430e-01    1.39443e-01    1.39430e-01    1.39443e-01    0.00000e+00    0.00000e+00    0.00000e+00    0.00000e+00    0.00000e+00    0.00000e+00    0.00000e+00    0.00000e+00    0.00000e+00
    3.20000e+01    0.00000e+00    0.00000e+00    0.00000e+00    5.01969e+00    2.23071e+00    5.57582e-01    5.57957e-01    5.57664e-01    5.57957e-01    1.39418e-01    1.39491e-01    1.39418e-01    1.39491e-01    0.00000e+00    0.00000e+00    0.00000e+00    0.00000e+00    0.00000e+00    0.00000e+00    0.00000e+00    0.00000e+00    0.00000e+00
    3.30000e+01    0.00000e+00    0.00000e+00    0.00000e+00    5.02009e+00    2.23088e+00    5.57633e-01    5.58005e-01    5.57692e-01    5.58005e-01    1.39407e-01    1.39532e-01    1.39407e-01    1.39532e-01    0.00000e+00    0.00000e+00    0.00000e+00    0.00000e+00    0.00000e+00    0.00000e+00    0.00000e+00    0.00000e+00    0.00000e+00
    3.40000e+01    0.00000e+00    0.00000e+00    0.00000e+00    5.02035e+00    2.23098e+00    5.57671e-01    5.58036e-01    5.57706e-01    5.58036e-01    1.39397e-01    1.39564e-01    1.39397e-01    1.39564e-01    0.00000e+00    0.00000e+00    0.00000e+00    0.00000e+00    0.00000e+00    0.00000e+00    0.00000e+00    0.00000e+00    0.00000e+00
    3.50000e+01    0.00000e+00    0.00000e+00    0.00000e+00    5.02049e+00    2.23103e+00    5.57696e-01    5.58049e-01    5.57706e-01    5.58049e-01    1.39389e-01    1.39588e-01    1.39389e-01    1.39588e-01    0.00000e+00    0.00000e+00    0.00000e+00    0.00000e+00    0.00000e+00    0.00000e+00    0.00000e+00    0.00000e+00    0.00000e+00
    3.60000e+01    0.00000e+00    0.00000e+00    0.00000e+00    5.02049e+00    2.23102e+00    5.57706e-01    5.58043e-01    5.57694e-01    5.58043e-01    1.39387e-01    1.39601e-01    1.39387e-01    1.39601e-01    0.00000e+00    0.00000e+00    0.00000e+00    0.00000e+00    0.00000e+00    0.00000e+00    0.00000e+00    0.00000e+00    0.00000e+00
    3.70000e+01    0.00000e+00    0.00000e+00    0.00000e+00    5.02029e+00    2.23093e+00    5.57704e-01    5.58012e-01    5.57609e-01    5.58012e-01    1.39409e-01    1.39602e-01    1.39409e-01    1.39602e-01    0.00000e+00    0.00000e+00    0.00000e+00    0.00000e+00    0.00000e+00    0.00000e+00    0.00000e+00    0.00000e+00    0.00000e+00
    3.80000e+01    0.00000e+00    0.00000e+00    0.00000e+00    5.01944e+00    2.23054e+00    5.57681e-01    5.57929e-01    5.57411e-01    5.57929e-01    1.39386e-01    1.39587e-01    1.39386e-01    1.39587e-01    0.00000e+00    0.00000e+00    0.00000e+00    0.00000e+00    0.00000e+00    0.00000e+00    0.00000e+00    0.00000e+00    0.00000e+00
    3.90000e+01    0.00000e+00    0.00000e+00    0.00000e+00    5.01788e+00    2.22983e+00    5.57572e-01    5.57573e-01    5.57572e-01    5.57573e-01    1.39333e-01    1.39544e-01    1.39333e-01    1.39544e-01    0.00000e+00    0.00000e+00    0.00000e+00    0.00000e+00    0.00000e+00    0.00000e+00    0.00000e+00    0.00000e+00    0.00000e+00
    0.00000e+00    1.00000e+00    0.00000e+00    0.00000e+00    4.99709e+00    2.22106e+00    5.55135e-01    5.55366e-01    5.55135e-01    5.55247e-01    1.38746e-01    1.38827e-01    1.38746e-01    1.38827e-01    0.00000e+00    0.00000e+00    0.00000e+00    0.00000e+00    0.00000e+00    0.00000e+00    0.00000e+00    0.00000e+00    0.00000e+00
    1.00000e+00    1.00000e+00    7.09625e-05    6.52753e-05    4.99690e+00    2.22097e+00    5.55283e-01    5.55282e-01    5.55074e-01    5.55103e-01    1.38849e-01    1.38818e-01    1.38702e-01    1.38817e-01    0.00000e+00    0.00000e+00    0.00000e+00    0.00000e+00    0.00000e+00    0.00000e+00    0.00000e+00    0.00000e+00    0.00000e+00
    2.00000e+00    1.00000e+00    9.67727e-05    7.44735e-05    4.99679e+00    2.22092e+00    5.55398e-01    5.55241e-01    5.55072e-01    5.55022e-01    1.38835e-01    1.38813e-01    1.38679e-01    1.38815e-01    0.00000e+00    0.00000e+00    0.00000e+00    0.00000e+00    0.00000e+00    0.00000e+00    0.00000e+00    0.00000e+00    0.00000e+00
    3.00000e+00    1.00000e+00    9.28859e-05    8.33059e-05    4.99676e+00    2.22090e+00    5.55426e-01    5.55237e-01    5.55113e-01    5.54957e-01    1.38819e-01    1.38812e-01    1.38675e-01    1.38820e-01    0.00000e+00    0.00000e+00    0.00000e+00    0.00000e+00    0.00000e+00    0.00000e+00    0.00000e+00    0.00000e+00    0.00000e+00
    4.00000e+00    1.00000e+00    6.86862e-05    9.12874e-05    4.99680e+00    2.22092e+00    5.55417e-01    5.55241e-01    5.55191e-01    5.54910e-01    1.38812e-01    1.38814e-01    1.38690e-01    1.38810e-01    0.00000e+00    0.00000e+00    0.00000e+00    0.00000e+00    0.00000e+00    0.00000e+00    0.00000e+00    0.00000e+00    0.00000e+00
    5.00000e+00    1.00000e+00    2.80140e-05    9.86740e-05    4.99693e+00    2.22097e+00    5.55384e-01    5.55254e-01    5.55302e-01    5.54880e-01    1.38810e-01    1.38819e-01    1.38721e-01    1.38788e-01    0.00000e+00    0.00000e+00    0.00000e+00    0.00000e+00    0.00000e+00    0.00000e+00    0.00000e+00    0.00000e+00    0.00000e+00
    6.00000e+00    1.00000e+00   -2.64667e-05    1.04455e-04    4.99715e+00    2.22107e+00    5.55334e-01    5.55276e-01    5.55441e-01    5.54869e-01    1.38811e-01    1.38826e-01    1.38767e-01    1.38757e-01    0.00000e+00    0.00000e+00    0.00000e+00    0.00000e+00    0.00000e+00    0.00000e+00    0.00000e+00    0.00000e+00    0.00000e+00
    7.00000e+00    1.00000e+00   -9.15286e-05    1.08390e-04    4.99746e+00    2.22121e+00    5.55270e-01    5.55310e-01    5.55601e-01    5.54878e-01    1.38815e-01    1.38837e-01    1.38824e-01    1.38718e-01    0.00000e+00    0.00000e+00    0.00000e+00    0.00000e+00    0.00000e+00    0.00000e+00    0.00000e+00    0.00000e+00    0.00000e+00
    8.00000e+00    1.00000e+00   -1.63625e-04    1.10217e-04    4.99786e+00    2.22139e+00    5.55200e-01    5.55354e-01    5.55777e-01    5.54910e-01    1.38822e-01    1.38850e-01    1.38889e-01    1.38677e-01    0.00000e+00    0.00000e+00    0.00000e+00    0.00000e+00    0.00000e+00    0.00000e+00    0.00000e+00    0.00000e+00    0.00000e+00
    9.00000e+00    1.00000e+00   -2.39264e-04    1.09870e-04    4.99836e+00    2.22160e+00    5.55128e-01    5.55408e-01    5.55964e-01    5.54962e-01    1.38832e-01    1.38867e-01    1.38961e-01    1.38635e-01    0.00000e+00    0.00000e+00    0.00000e+00    0.00000e+00    0.00000e+00    0.00000e+00    0.00000e+00    0.00000e+00    0.00000e+00
    1.00000e+01    1.00000e+00   -3.15267e-04    1.07367e-04    4.99895e+00    2.22186e+00    5.55061e-01    5.55472e-01    5.56155e-01    5.55036e-01    1.38845e-01    1.38886e-01    1.39036e-01    1.38595e-01    0.00000e+00    0.00000e+00    0.00000e+00    0.00000e+00    0.00000e+00    0.00000e+00    0.00000e+00    0.00000e+00    0.00000e+00
    1.10000e+01    1.00000e+00   -3.88842e-04    1.02766e-04    4.99962e+00    2.22215e+00    5.55003e-01    5.55546e-01    5.56348e-01    5.55128e-01    1.38861e-01    1.38907e-01    1.39113e-01    1.38560e-01    0.00000e+00    0.00000e+00    0.00000e+00    0.00000e+00    0.00000e+00    0.00000e+00    0.00000e+00    0.00000e+00    0.00000e+00
    1.20000e+01    1.00000e+00   -4.57600e-04    9.61231e-05    5.00038e+00    2.22248e+00    5.54958e-01    5.55629e-01    5.56537e-01    5.55239e-01    1.38880e-01    1.38931e-01    1.39189e-01    1.38531e-01    0.00000e+00    0.00000e+00    0.00000e+00    0.00000e+00    0.00000e+00    0.00000e+00    0.00000e+00    0.00000e+00    0.00000e+00
    1.30000e+01    1.00000e+00   -5.19526e-04    8.74975e-05    5.00121e+00    2.22285e+00    5.54929e-01    5.55720e-01    5.56719e-01    5.55366e-01    1.38901e-01    1.38956e-01    1.39264e-01    1.38510e-01    0.00000e+00    0.00000e+00    0.00000e+00    0.00000e+00    0.00000e+00    0.00000e+00    0.00000e+00    0.00000e+00    0.00000e+00
    1.40000e+01    1.00000e+00   -5.72960e-04    7.69528e-05    5.00211e+00    2.22324e+00    5.54920e-01    5.55818e-01    5.56891e-01    5.55508e-01    1.38924e-01    1.38983e-01    1.39334e-01    1.38498e-01    0.00000e+00    0.00000e+00    0.00000e+00    0.00000e+00    0.00000e+00    0.00000e+00    0.00000e+00    0.00000e+00    0.00000e+00
    1.50000e+01    1.00000e+00   -6.16567e-04    6.45680e-05    5.00308e+00    2.22365e+00    5.54932e-01    5.55922e-01    5.57050e-01    5.55664e-01    1.38949e-01    1.39011e-01    1.39400e-01    1.38495e-01    0.00000e+00    0.00000e+00    0.00000e+00    0.00000e+00    0.00000e+00    0.00000e+00    0.00000e+00    0.00000e+00    0.00000e+00
    1.60000e+01    1.00000e+00   -6.49330e-04    5.04450e-05    5.00409e+00    2.22409e+00    5.54966e-01    5.56031e-01    5.57194e-01    5.55833e-01    1.38976e-01    1.39040e-01    1.39460e-01    1.38503e-01    0.00000e+00    0.00000e+00    0.00000e+00    0.00000e+00    0.00000e+00    0.00000e+00    0.00000e+00    0.00000e+00    0.00000e+00
    1.70000e+01    1.00000e+00   -6.70527e-04    3.47156e-05    5.00515e+00    2.22455e+00    5.55023e-01    5.56145e-01    5.57322e-01    5.56011e-01    1.39004e-01    1.39070e-01    1.39512e-01    1.38522e-01    0.00000e+00    0.00000e+00    0.00000e+00    0.00000e+00    0.00000e+00    0.00000e+00    0.00000e+00    0.00000e+00    0.00000e+00
    1.80000e+01    1.00000e+00   -6.79726e-04    1.75470e-05    5.00625e+00    2.22502e+00    5.55102e-01    5.56261e-01    5.57431e-01    5.56198e-01    1.39033e-01    1.39100e-01    1.39558e-01    1.38551e-01    0.00000e+00    0.00000e+00    0.00000e+00    0.00000e+00    0.00000e+00    0.00000e+00    0.00000e+00    0.00000e+00    0.00000e+00
    1.90000e+01    1.00000e+00   -6.76772e-04   -8.54851e-07    5.00737e+00    2.22549e+00    5.55205e-01    5.56379e-01    5.57522e-01    5.56391e-01    1.39063e-01    1.39131e-01    1.39595e-01    1.38592e-01    0.00000e+00    0.00000e+00    0.00000e+00    0.00000e+00    0.00000e+00    0.00000e+00    0.00000e+00    0.00000e+00    0.00000e+00
    2.00000e+01    1.00000e+00   -6.61778e-04   -2.02425e-05    5.00851e+00    2.22598e+00    5.55329e-01    5.56498e-01    5.57594e-01    5.56587e-01    1.39093e-01    1.39161e-01    1.39624e-01    1.38642e-01    0.00000e+00    0.00000e+00    0.00000e+00    0.00000e+00    0.00000e+00    0.00000e+00    0.00000e+00    0.00000e+00    0.00000e+00
    2.10000e+01    1.00000e+00   -6.35117e-04   -4.03277e-05    5.00965e+00    2.22646e+00    5.55474e-01    5.56617e-01    5.57647e-01    5.56786e-01    1.39123e-01    1.39191e-01    1.39644e-01    1.38703e-01    0.00000e+00    0.00000e+00    0.00000e+00    0.00000e+00    0.00000e+00    0.00000e+00    0.00000e+00    0.00000e+00    0.00000e+00
    2.20000e+01    1.00000e+00   -5.97420e-04   -6.07834e-05    5.01078e+00    2.22694e+00    5.55637e-01    5.56735e-01    5.57681e-01    5.56984e-01    1.39153e-01    1.39220e-01    1.39656e-01    1.38773e-01    0.00000e+00    0.00000e+00    0.00000e+00    0.00000e+00    0.00000e+00    0.00000e+00    0.00000e+00    0.00000e+00    0.00000e+00
    2.30000e+01    1.00000e+00   -5.49564e-04   -8.12506e-05    5.01190e+00    2.22742e+00    5.55818e-01    5.56851e-01    5.57698e-01    5.57179e-01    1.39183e-01    1.39248e-01    1.39659e-01    1.38850e-01    0.00000e+00    0.00000e+00    0.00000e+00    0.00000e+00    0.00000e+00    0.00000e+00    0.00000e+00    0.00000e+00    0.00000e+00
    2.40000e+01    1.00000e+00   -4.92671e-04   -1.01347e-04    5.01300e+00    2.22788e+00    5.56012e-01    5.56963e-01    5.57698e-01    5.57368e-01    1.39212e-01    1.39275e-01    1.39655e-01    1.38934e-01    0.00000e+00    0.00000e+00    0.00000e+00    0.00000e+00    0.00000e+00    0.00000e+00    0.00000e+00    0.00000e+00    0.00000e+00
    2.50000e+01    1.00000e+00   -4.28092e-04   -1.20680e-04    5.01405e+00    2.22832e+00    5.56218e-01    5.57072e-01    5.57684e-01    5.57549e-01    1.39240e-01    1.39300e-01    1.39644e-01    1.39024e-01    0.00000e+00    0.00000e+00    0.00000e+00    0.00000e+00    0.00000e+00    0.00000e+00    0.00000e+00    0.00000e+00    0.00000e+00
    2.60000e+01    1.00000e+00   -3.57394e-04   -1.38862e-04    5.01507e+00    2.22875e+00    5.56433e-01    5.57175e-01    5.57657e-01    5.57718e-01    1.39267e-01    1.39324e-01    1.39627e-01    1.39116e-01    0.00000e+00    0.00000e+00    0.00000e+00    0.00000e+00    0.00000e+00    0.00000e+00    0.00000e+00    0.00000e+00    0.00000e+00
    2.70000e+01    1.00000e+00   -2.82334e-04   -1.55524e-04    5.01602e+00    2.22915e+00    5.56652e-01    5.57272e-01    5.57621e-01    5.57875e-01    1.39292e-01    1.39345e-01    1.39604e-01    1.39210e-01    0.00000e+00    0.00000e+00    0.00000e+00    0.00000e+00    0.00000e+00    0.00000e+00    0.00000e+00    0.00000e+00    0.00000e+00
    2.80000e+01    1.00000e+00   -2.04840e-04   -1.70331e-04    5.01691e+00    2.22952e+00    5.56871e-01    5.57362e-01    5.57576e-01    5.58015e-01    1.39316e-01    1.39365e-01    1.39578e-01    1.39304e-01    0.00000e+00    0.00000e+00    0.00000e+00    0.00000e+00    0.00000e+00    0.00000e+00    0.00000e+00    0.00000e+00    0.00000e+00
    2.90000e+01    1.00000e+00   -1.26983e-04   -1.82986e-04    5.01772e+00    2.22986e+00    5.57087e-01    5.57444e-01    5.57527e-01    5.58138e-01    1.39338e-01    1.39382e-01    1.39549e-01    1.39395e-01    0.00000e+00    0.00000e+00    0.00000e+00    0.00000e+00    0.00000e+00    0.00000e+00    0.00000e+00    0.00000e+00    0.00000e+00
    3.00000e+01    1.00000e+00   -5.09684e-05   -1.93238e-04    5.01845e+00    2.23017e+00    5.57295e-01    5.57517e-01    5.57475e-01    5.58240e-01    1.39357e-01    1.39396e-01    1.39518e-01    1.39481e-01    0.00000e+00    0.00000e+00    0.00000e+00    0.00000e+00    0.00000e+00    0.00000e+00    0.00000e+00    0.00000e+00    0.00000e+00
    3.10000e+01    1.00000e+00    2.08595e-05   -2.00885e-04    5.01908e+00    2.23043e+00    5.57490e-01    5.57580e-01    5.57424e-01    5.58321e-01    1.39374e-01    1.39407e-01    1.39488e-01    1.39560e-01    0.00000e+00    0.00000e+00    0.00000e+00    0.00000e+00    0.00000e+00    0.00000e+00    0.00000e+00    0.00000e+00    0.00000e+00
    3.20000e+01    1.00000e+00    8.60184e-05   -2.05811e-04    5.01960e+00    2.23065e+00    5.57667e-01    5.57631e-01    5.57378e-01    5.58379e-01    1.39389e-01    1.39414e-01    1.39460e-01    1.39629e-01    0.00000e+00    0.00000e+00    0.00000e+00    0.00000e+00    0.00000e+00    0.00000e+00    0.00000e+00    0.00000e+00    0.00000e+00
    3.30000e+01    1.00000e+00    1.41936e-04   -2.08022e-04    5.02001e+00    2.23082e+00    5.57822e-01    5.57671e-01    5.57340e-01    5.58412e-01    1.39401e-01    1.39419e-01    1.39437e-01    1.39685e-01    0.00000e+00    0.00000e+00    0.00000e+00    0.00000e+00    0.00000e+00    0.00000e+00    0.00000e+00    0.00000e+00    0.00000e+00
    3.40000e+01    1.00000e+00    1.86178e-04   -2.07748e-04    5.02029e+00    2.23094e+00    5.57949e-01    5.57697e-01    5.57311e-01    5.58420e-01    1.39409e-01    1.39419e-01    1.39420e-01    1.39728e-01    0.00000e+00    0.00000e+00    0.00000e+00    0.00000e+00    0.00000e+00    0.00000e+00    0.00000e+00    0.00000e+00    0.00000e+00
    3.50000e+01    1.00000e+00    2.16708e-04   -2.04955e-04    5.02044e+00    2.23100e+00    5.58043e-01    5.57710e-01    5.57292e-01    5.58402e-01    1.39415e-01    1.39416e-01    1.39414e-01    1.39753e-01    0.00000e+00    0.00000e+00    0.00000e+00    0.00000e+00    0.00000e+00    0.00000e+00    0.00000e+00    0.00000e+00    0.00000e+00
    3.60000e+01    1.00000e+00    2.31396e-04   -2.00205e-04    5.02044e+00    2.23099e+00    5.58099e-01    5.57709e-01    5.57293e-01    5.58354e-01    1.39417e-01    1.39400e-01    1.39418e-01    1.39758e-01    0.00000e+00    0.00000e+00    0.00000e+00    0.00000e+00    0.00000e+00    0.00000e+00    0.00000e+00    0.00000e+00    0.00000e+00
    3.70000e+01    1.00000e+00    2.22468e-04   -1.90551e-04    5.02028e+00    2.23092e+00    5.58112e-01    5.57691e-01    5.57345e-01    5.58258e-01    1.39415e-01    1.39368e-01    1.39434e-01    1.39738e-01    0.00000e+00    0.00000e+00    0.00000e+00    0.00000e+00    0.00000e+00    0.00000e+00    0.00000e+00    0.00000e+00    0.00000e+00
    3.80000e+01    1.00000e+00    1.63129e-04   -1.67974e-04    5.01995e+00    2.23077e+00    5.58069e-01    5.57595e-01    5.57596e-01    5.58082e-01    1.39405e-01    1.39335e-01    1.39409e-01    1.39686e-01    0.00000e+00    0.00000e+00    0.00000e+00    0.00000e+00    0.00000e+00    0.00000e+00    0.00000e+00    0.00000e+00    0.00000e+00
    3.90000e+01    1.00000e+00    0.00000e+00    0.00000e+00    5.01945e+00    2.23055e+00    5.57925e-01    5.57411e-01    5.57925e-01    5.57691e-01    1.39385e-01    1.39590e-01    1.39385e-01    1.39590e-01    0.00000e+00    0.00000e+00    0.00000e+00    0.00000e+00    0.00000e+00    0.00000e+00    0.00000e+00    0.00000e+00    0.00000e+00
    0.00000e+00    2.00000e+00    0.00000e+00    0.00000e+00    4.99677e+00    2.22090e+00    5.55106e-01    5.55276e-01    5.55106e-01    5.55250e-01    1.38749e-01    1.38814e-01    1.38749e-01    1.38814e-01    0.00000e+00    0.00000e+00    0.00000e+00    0.00000e+00    0.00000e+00    0.00000e+00    0.00000e+00    0.00000e+00    0.00000e+00
    1.00000e+00    2.00000e+00    7.84379e-05    8.26759e-05    4.99683e+00    2.22093e+00    5.55244e-01    5.55389e-01    5.55011e-01    5.55113e-01    1.38833e-01    1.38805e-01    1.38685e-01    1.38816e-01    0.00000e+00    0.00000e+00    0.00000e+00    0.00000e+00    0.00000e+00    0.00000e+00    0.00000e+00    0.00000e+00    0.00000e+00
    2.00000e+00    2.00000e+00    1.30030e-04    1.27487e-04    4.99682e+00    2.22093e+00    5.55397e-01    5.55387e-01    5.54989e-01    5.54974e-01    1.38874e-01    1.38811e-01    1.38641e-01    1.38820e-01    0.00000e+00    0.00000e+00    0.00000e+00    0.00000e+00    0.00000e+00    0.00000e+00    0.00000e+00    0.00000e+00    0.00000e+00
    3.00000e+00    2.00000e+00    1.41733e-04    1.67867e-04    4.99686e+00    2.22094e+00    5.55492e-01    5.55392e-01    5.55038e-01    5.54840e-01    1.38893e-01    1.38827e-01    1.38622e-01    1.38810e-01    0.00000e+00    0.00000e+00    0.00000e+00    0.00000e+00    0.00000e+00    0.00000e+00    0.00000e+00    0.00000e+00    0.00000e+00
    4.00000e+00    2.00000e+00    1.15436e-04    2.02646e-04    4.99695e+00    2.22098e+00    5.55522e-01    5.55406e-01    5.55151e-01    5.54726e-01    1.38897e-01    1.38851e-01    1.38628e-01    1.38788e-01    0.00000e+00    0.00000e+00    0.00000e+00    0.00000e+00    0.00000e+00    0.00000e+00    0.00000e+00    0.00000e+00    0.00000e+00
    5.00000e+00    2.00000e+00    5.56543e-05    2.32633e-04    4.99712e+00    2.22105e+00    5.55495e-01    5.55430e-01    5.55318e-01    5.54637e-01    1.38894e-01    1.38883e-01    1.38658e-01    1.38748e-01    0.00000e+00    0.00000e+00    0.00000e+00    0.00000e+00    0.00000e+00    0.00000e+00    0.00000e+00    0.00000e+00    0.00000e+00