TITLE="LBM output"
VARIABLES = "X", "Y", "U","V","density","f0","f1","f2","f3","f4","f5","f6","f7","f8","feq0","feq1","feq2","feq3","feq4","feq5","feq6","feq7","feq8",
ZONE T = "fluid", I=40, J=40, F=POINT
SOLUTIONTIME=533
    0.00000e+00    0.00000e+00    0.00000e+00    0.00000e+00    5.09506e+00    2.26408e+00    5.66130e-01    5.66129e-01    5.66130e-01    5.66129e-01    1.41725e-01    1.41505e-01    1.41725e-01    1.41505e-01    2.84881e+00    9.61653e-01    7.12202e-01    5.27825e-01    7.12202e-01    2.40413e-01    1.31956e-01    1.31956e-01    2.40413e-01
    1.00000e+00    0.00000e+00    0.00000e+00    0.00000e+00    5.09644e+00    2.26475e+00    5.65924e-01    5.66539e-01    5.66248e-01    5.66539e-01    1.41671e-01    1.41549e-01    1.41671e-01    1.41549e-01    2.84881e+00    9.61653e-01    7.12202e-01    5.27825e-01    7.12202e-01    2.40413e-01    1.31956e-01    1.31956e-01    2.40413e-01
    2.00000e+00    0.00000e+00    0.00000e+00    0.00000e+00    5.09588e+00    2.26454e+00    5.66417e-01    5.66307e-01    5.65986e-01    5.66307e-01    1.41649e-01    1.41512e-01    1.41649e-01    1.41512e-01    2.84881e+00    9.61653e-01    7.12202e-01    5.27825e-01    7.12202e-01    2.40413e-01    1.31956e-01    1.31956e-01    2.40413e-01
    3.00000e+00    0.00000e+00    0.00000e+00    0.00000e+00    5.09449e+00    2.26395e+00    5.65916e-01    5.66287e-01    5.65977e-01    5.66287e-01    1.41617e-01    1.41420e-01    1.41617e-01    1.41420e-01    2.84881e+00    9.61653e-01    7.12202e-01    5.27825e-01    7.12202e-01    2.40413e-01    1.31956e-01    1.31956e-01    2.40413e-01
    4.00000e+00    0.00000e+00    0.00000e+00    0.00000e+00    5.09355e+00    2.26358e+00    5.66049e-01    5.66057e-01    5.65776e-01    5.66057e-01    1.41570e-01    1.41448e-01    1.41570e-01    1.41448e-01    2.84881e+00    9.61653e-01    7.12202e-01    5.27825e-01    7.12202e-01    2.40413e-01    1.31956e-01    1.31956e-01    2.40413e-01
    5.00000e+00    0.00000e+00    0.00000e+00    0.00000e+00    5.09178e+00    2.26284e+00    5.65787e-01    5.65858e-01    5.65613e-01    5.65858e-01    1.41536e-01    1.41376e-01    1.41536e-01    1.41376e-01    2.84881e+00    9.61653e-01    7.12202e-01    5.27825e-01    7.12202e-01    2.40413e-01    1.31956e-01    1.31956e-01    2.40413e-01
    6.00000e+00    0.00000e+00    0.00000e+00    0.00000e+00    5.09012e+00    2.26214e+00    5.65654e-01    5.65643e-01    5.65425e-01    5.65643e-01    1.41485e-01    1.41320e-01    1.41485e-01    1.41320e-01    2.84881e+00    9.61653e-01    7.12202e-01    5.27825e-01    7.12202e-01    2.40413e-01    1.31956e-01    1.31956e-01    2.40413e-01
    7.00000e+00    0.00000e+00    0.00000e+00    0.00000e+00    5.08826e+00    2.26137e+00    5.65456e-01    5.65418e-01    5.65224e-01    5.65418e-01    1.41426e-01    1.41265e-01    1.41426e-01    1.41265e-01    2.84881e+00    9.61653e-01    7.12202e-01    5.27825e-01    7.12202e-01    2.40413e-01    1.31956e-01    1.31956e-01    2.40413e-01
    8.00000e+00    0.00000e+00    0.00000e+00    0.00000e+00    5.08637e+00    2.26056e+00    5.65260e-01    5.65188e-01    5.65024e-01    5.65188e-01    1.41363e-01    1.41208e-01    1.41363e-01    1.41208e-01    2.84881e+00    9.61653e-01    7.12202e-01    5.27825e-01    7.12202e-01    2.40413e-01    1.31956e-01    1.31956e-01    2.40413e-01
    9.00000e+00    0.00000e+00    0.00000e+00    0.00000e+00    5.08447e+00    2.25976e+00    5.65056e-01    5.64959e-01    5.64823e-01    5.64959e-01    1.41295e-01    1.41163e-01    1.41295e-01    1.41163e-01    2.84881e+00    9.61653e-01    7.12202e-01    5.27825e-01    7.12202e-01    2.40413e-01    1.31956e-01    1.31956e-01    2.40413e-01
    1.00000e+01    0.00000e+00    0.00000e+00    0.00000e+00    5.08260e+00    2.25896e+00    5.64854e-01    5.64737e-01    5.64626e-01    5.64737e-01    1.41225e-01    1.41120e-01    1.41225e-01    1.41120e-01    2.84881e+00    9.61653e-01    7.12202e-01    5.27825e-01    7.12202e-01    2.40413e-01    1.31956e-01    1.31956e-01    2.40413e-01
    1.10000e+01    0.00000e+00    0.00000e+00    0.00000e+00    5.08080e+00    2.25818e+00    5.64655e-01    5.64524e-01    5.64435e-01    5.64524e-01    1.41155e-01    1.41084e-01    1.41155e-01    1.41084e-01    2.84881e+00    9.61653e-01    7.12202e-01    5.27825e-01    7.12202e-01    2.40413e-01    1.31956e-01    1.31956e-01    2.40413e-01
    1.20000e+01    0.00000e+00    0.00000e+00    0.00000e+00    5.07905e+00    2.25742e+00    5.64462e-01    5.64322e-01    5.64250e-01    5.64322e-01    1.41085e-01    1.41053e-01    1.41085e-01    1.41053e-01    2.84881e+00    9.61653e-01    7.12202e-01    5.27825e-01    7.12202e-01    2.40413e-01    1.31956e-01    1.31956e-01    2.40413e-01
    1.30000e+01    0.00000e+00    0.00000e+00    0.00000e+00    5.07738e+00    2.25669e+00    5.64274e-01    5.64131e-01    5.64072e-01    5.64131e-01    1.41016e-01    1.41026e-01    1.41016e-01    1.41026e-01    2.84881e+00    9.61653e-01    7.12202e-01    5.27825e-01    7.12202e-01    2.40413e-01    1.31956e-01    1.31956e-01    2.40413e-01
    1.40000e+01    0.00000e+00    0.00000e+00    0.00000e+00    5.07577e+00    2.25598e+00    5.64095e-01    5.63948e-01    5.63898e-01    5.63948e-01    1.40950e-01    1.41001e-01    1.40950e-01    1.41001e-01    2.84881e+00    9.61653e-01    7.12202e-01    5.27825e-01    7.12202e-01    2.40413e-01    1.31956e-01    1.31956e-01    2.40413e-01
    1.50000e+01    0.00000e+00    0.00000e+00    0.00000e+00    5.07421e+00    2.25529e+00    5.63919e-01    5.63772e-01    5.63726e-01    5.63772e-01    1.40885e-01    1.40978e-01    1.40885e-01    1.40978e-01    2.84881e+00    9.61653e-01    7.12202e-01    5.27825e-01    7.12202e-01    2.40413e-01    1.31956e-01    1.31956e-01    2.40413e-01
    1.60000e+01    0.00000e+00    0.00000e+00    0.00000e+00    5.07266e+00    2.25460e+00    5.63747e-01    5.63601e-01    5.63555e-01    5.63601e-01    1.40821e-01    1.40956e-01    1.40821e-01    1.40956e-01    2.84881e+00    9.61653e-01    7.12202e-01    5.27825e-01    7.12202e-01    2.40413e-01    1.31956e-01    1.31956e-01    2.40413e-01
    1.70000e+01    0.00000e+00    0.00000e+00    0.00000e+00    5.07110e+00    2.25391e+00    5.63574e-01    5.63430e-01    5.63379e-01    5.63430e-01    1.40759e-01    1.40932e-01    1.40759e-01    1.40932e-01    2.84881e+00    9.61653e-01    7.12202e-01    5.27825e-01    7.12202e-01    2.40413e-01    1.31956e-01    1.31956e-01    2.40413e-01
    1.80000e+01    0.00000e+00    0.00000e+00    0.00000e+00    5.06950e+00    2.25319e+00    5.63399e-01    5.63255e-01    5.63195e-01    5.63255e-01    1.40699e-01    1.40905e-01    1.40699e-01    1.40905e-01    2.84881e+00    9.61653e-01    7.12202e-01    5.27825e-01    7.12202e-01    2.40413e-01    1.31956e-01    1.31956e-01    2.40413e-01
    1.90000e+01    0.00000e+00    0.00000e+00    0.00000e+00    5.06782e+00    2.25243e+00    5.63215e-01    5.63072e-01    5.62999e-01    5.63072e-01    1.40639e-01    1.40875e-01    1.40639e-01    1.40875e-01    2.84881e+00    9.61653e-01    7.12202e-01    5.27825e-01    7.12202e-01    2.40413e-01    1.31956e-01    1.31956e-01    2.40413e-01
    2.00000e+01    0.00000e+00    0.00000e+00    0.00000e+00    5.06602e+00    2.25162e+00    5.63020e-01    5.62878e-01    5.62788e-01    5.62878e-01    1.40580e-01    1.40840e-01    1.40580e-01    1.40840e-01    2.84881e+00    9.61653e-01    7.12202e-01    5.27825e-01    7.12202e-01    2.40413e-01    1.31956e-01    1.31956e-01    2.40413e-01
    2.10000e+01    0.00000e+00    0.00000e+00    0.00000e+00    5.06409e+00    2.25074e+00    5.62811e-01    5.62669e-01    5.62559e-01    5.62669e-01    1.40523e-01    1.40796e-01    1.40523e-01    1.40796e-01    2.84881e+00    9.61653e-01    7.12202e-01    5.27825e-01    7.12202e-01    2.40413e-01    1.31956e-01    1.31956e-01    2.40413e-01
    2.20000e+01    0.00000e+00    0.00000e+00    0.00000e+00    5.06200e+00    2.24979e+00    5.62584e-01    5.62442e-01    5.62313e-01    5.62442e-01    1.40466e-01    1.40744e-01    1.40466e-01    1.40744e-01    2.84881e+00    9.61653e-01    7.12202e-01    5.27825e-01    7.12202e-01    2.40413e-01    1.31956e-01    1.31956e-01    2.40413e-01
    2.30000e+01    0.00000e+00    0.00000e+00    0.00000e+00    5.05975e+00    2.24878e+00    5.62339e-01    5.62197e-01    5.62048e-01    5.62197e-01    1.40410e-01    1.40685e-01    1.40410e-01    1.40685e-01    2.84881e+00    9.61653e-01    7.12202e-01    5.27825e-01    7.12202e-01    2.40413e-01    1.31956e-01    1.31956e-01    2.40413e-01
    2.40000e+01    0.00000e+00    0.00000e+00    0.00000e+00    5.05736e+00    2.24770e+00    5.62077e-01    5.61936e-01    5.61770e-01    5.61936e-01    1.40355e-01    1.40616e-01    1.40355e-01    1.40616e-01    2.84881e+00    9.61653e-01    7.12202e-01    5.27825e-01    7.12202e-01    2.40413e-01    1.31956e-01    1.31956e-01    2.40413e-01
    2.50000e+01    0.00000e+00    0.00000e+00    0.00000e+00    5.05485e+00    2.24657e+00    5.61801e-01    5.61660e-01    5.61481e-01    5.61660e-01    1.40301e-01    1.40539e-01    1.40301e-01    1.40539e-01    2.84881e+00    9.61653e-01    7.12202e-01    5.27825e-01    7.12202e-01    2.40413e-01    1.31956e-01    1.31956e-01    2.40413e-01
    2.60000e+01    0.00000e+00    0.00000e+00    0.00000e+00    5.05226e+00    2.24540e+00    5.61514e-01    5.61374e-01    5.61188e-01    5.61374e-01    1.40246e-01    1.40456e-01    1.40246e-01    1.40456e-01    2.84881e+00    9.61653e-01    7.12202e-01    5.27825e-01    7.12202e-01    2.40413e-01    1.31956e-01    1.31956e-01    2.40413e-01
    2.70000e+01    0.00000e+00    0.00000e+00    0.00000e+00    5.04963e+00    2.24423e+00    5.61221e-01    5.61081e-01    5.60893e-01    5.61081e-01    1.40193e-01    1.40370e-01    1.40193e-01    1.40370e-01    2.84881e+00    9.61653e-01    7.12202e-01    5.27825e-01    7.12202e-01    2.40413e-01    1.31956e-01    1.31956e-01    2.40413e-01
    2.80000e+01    0.00000e+00    0.00000e+00    0.00000e+00    5.04702e+00    2.24307e+00    5.60929e-01    5.60788e-01    5.60608e-01    5.60788e-01    1.40138e-01    1.40281e-01    1.40138e-01    1.40281e-01    2.84881e+00    9.61653e-01    7.12202e-01    5.27825e-01    7.12202e-01    2.40413e-01    1.31956e-01    1.31956e-01    2.40413e-01
    2.90000e+01    0.00000e+00    0.00000e+00    0.00000e+00    5.04447e+00    2.24195e+00    5.60643e-01    5.60499e-01    5.60329e-01    5.60499e-01    1.40084e-01    1.40194e-01    1.40084e-01    1.40194e-01    2.84881e+00    9.61653e-01    7.12202e-01    5.27825e-01    7.12202e-01    2.40413e-01    1.31956e-01    1.31956e-01    2.40413e-01
    3.00000e+01    0.00000e+00    0.00000e+00    0.00000e+00    5.04203e+00    2.24087e+00    5.60366e-01    5.60219e-01    5.60073e-01    5.60219e-01    1.40027e-01    1.40111e-01    1.40027e-01    1.40111e-01    2.84881e+00    9.61653e-01    7.12202e-01    5.27825e-01    7.12202e-01    2.40413e-01    1.31956e-01    1.31956e-01    2.40413e-01
    3.10000e+01    0.00000e+00    0.00000e+00    0.00000e+00    5.03971e+00    2.23986e+00    5.60106e-01    5.59951e-01    5.59823e-01    5.59951e-01    1.39974e-01    1.40034e-01    1.39974e-01    1.40034e-01    2.84881e+00    9.61653e-01    7.12202e-01    5.27825e-01    7.12202e-01    2.40413e-01    1.31956e-01    1.31956e-01    2.40413e-01
    3.20000e+01    0.00000e+00    0.00000e+00    0.00000e+00    5.03758e+00    2.23894e+00    5.59861e-01    5.59701e-01    5.59617e-01    5.59701e-01    1.39914e-01    1.39965e-01    1.39914e-01    1.39965e-01    2.84881e+00    9.61653e-01    7.12202e-01    5.27825e-01    7.12202e-01    2.40413e-01    1.31956e-01    1.31956e-01    2.40413e-01
    3.30000e+01    0.00000e+00    0.00000e+00    0.00000e+00    5.03562e+00    2.23810e+00    5.59641e-01    5.59479e-01    5.59396e-01    5.59479e-01    1.39861e-01    1.39902e-01    1.39861e-01    1.39902e-01    2.84881e+00    9.61653e-01    7.12202e-01    5.27825e-01    7.12202e-01    2.40413e-01    1.31956e-01    1.31956e-01    2.40413e-01
    3.40000e+01    0.00000e+00    0.00000e+00    0.00000e+00    5.03396e+00    2.23739e+00    5.59438e-01    5.59268e-01    5.59279e-01    5.59268e-01    1.39812e-01    1.39847e-01    1.39812e-01    1.39847e-01    2.84881e+00    9.61653e-01    7.12202e-01    5.27825e-01    7.12202e-01    2.40413e-01    1.31956e-01    1.31956e-01    2.40413e-01
    3.50000e+01    0.00000e+00    0.00000e+00    0.00000e+00    5.03234e+00    2.23670e+00    5.59282e-01    5.59094e-01    5.59032e-01    5.59094e-01    1.39760e-01    1.39812e-01    1.39760e-01    1.39812e-01    2.84881e+00    9.61653e-01    7.12202e-01    5.27825e-01    7.12202e-01    2.40413e-01    1.31956e-01    1.31956e-01    2.40413e-01
    3.60000e+01    0.00000e+00    0.00000e+00    0.00000e+00    5.03136e+00    2.23629e+00    5.59095e-01    5.58884e-01    5.59113e-01    5.58884e-01    1.39785e-01    1.39760e-01    1.39785e-01    1.39760e-01    2.84881e+00    9.61653e-01    7.12202e-01    5.27825e-01    7.12202e-01    2.40413e-01    1.31956e-01    1.31956e-01    2.40413e-01
    3.70000e+01    0.00000e+00    0.00000e+00    0.00000e+00    5.03026e+00    2.23581e+00    5.59063e-01    5.58868e-01    5.58758e-01    5.58868e-01    1.39729e-01    1.39715e-01    1.39729e-01    1.39715e-01    2.84881e+00    9.61653e-01    7.12202e-01    5.27825e-01    7.12202e-01    2.40413e-01    1.31956e-01    1.31956e-01    2.40413e-01
    3.80000e+01    0.00000e+00    0.00000e+00    0.00000e+00    5.02965e+00    2.23557e+00    5.58867e-01    5.58688e-01    5.59033e-01    5.58688e-01    1.39723e-01    1.39681e-01    1.39723e-01    1.39681e-01    2.84881e+00    9.61653e-01    7.12202e-01    5.27825e-01    7.12202e-01    2.40413e-01    1.31956e-01    1.31956e-01    2.40413e-01
    3.90000e+01    0.00000e+00    0.00000e+00    0.00000e+00    5.03032e+00    2.23591e+00    5.58921e-01    5.58920e-01    5.58921e-01    5.58920e-01    1.39745e-01    1.39617e-01    1.39745e-01    1.39617e-01    2.84881e+00    9.61653e-01    7.12202e-01    5.27825e-01    7.12202e-01    2.40413e-01    1.31956e-01    1.31956e-01    2.40413e-01
    0.00000e+00    1.00000e+00    0.00000e+00    0.00000e+00    5.09646e+00    2.26476e+00    5.66514e-01    5.65925e-01    5.66514e-01    5.66255e-01    1.41701e-01    1.41545e-01    1.41701e-01    1.41545e-01    2.84881e+00    9.61653e-01    7.12202e-01    5.27825e-01    7.12202e-01    2.40413e-01    1.31956e-01    1.31956e-01    2.40413e-01
    1.00000e+00    1.00000e+00   -2.41751e-04   -2.70199e-04    5.09605e+00    2.26459e+00    5.65905e-01    5.65883e-01    5.66662e-01    5.66738e-01    1.41316e-01    1.41560e-01    1.41814e-01    1.41583e-01    2.84881e+00    9.61653e-01    7.12202e-01    5.27825e-01    7.12202e-01    2.40413e-01    1.31956e-01    1.31956e-01    2.40413e-01
    2.00000e+00    1.00000e+00   -2.89341e-04   -2.03768e-04    5.09544e+00    2.26435e+00    5.65534e-01    5.65979e-01    5.66563e-01    5.66634e-01    1.41428e-01    1.41574e-01    1.41842e-01    1.41543e-01    2.84881e+00    9.61653e-01    7.12202e-01    5.27825e-01    7.12202e-01    2.40413e-01    1.31956e-01    1.31956e-01    2.40413e-01
    3.00000e+00    1.00000e+00   -3.16940e-04   -2.04410e-04    5.09453e+00    2.26398e+00    5.65544e-01    5.65734e-01    5.66630e-01    5.66439e-01    1.41418e-01    1.41517e-01    1.41851e-01    1.41421e-01    2.84881e+00    9.61653e-01    7.12202e-01    5.27825e-01    7.12202e-01    2.40413e-01    1.31956e-01    1.31956e-01    2.40413e-01
    4.00000e+00    1.00000e+00   -3.96717e-04   -1.44691e-04    5.09328e+00    2.26346e+00    5.65255e-01    5.65749e-01    5.66598e-01    5.66210e-01    1.41369e-01    1.41496e-01    1.41846e-01    1.41295e-01    2.84881e+00    9.61653e-01    7.12202e-01    5.27825e-01    7.12202e-01    2.40413e-01    1.31956e-01    1.31956e-01    2.40413e-01
    5.00000e+00    1.00000e+00   -4.66680e-04   -1.04881e-04    5.09171e+00    2.26281e+00    5.64984e-01    5.65579e-01    5.66569e-01    5.65931e-01    1.41362e-01    1.41466e-01    1.41849e-01    1.41162e-01    2.84881e+00    9.61653e-01    7.12202e-01    5.27825e-01    7.12202e-01    2.40413e-01    1.31956e-01    1.31956e-01    2.40413e-01
    6.00000e+00    1.00000e+00   -5.34974e-04   -8.13758e-05    5.09002e+00    2.26210e+00    5.64679e-01    5.65440e-01    5.66485e-01    5.65708e-01    1.41304e-01    1.41425e-01    1.41836e-01    1.41040e-01    2.84881e+00    9.61653e-01    7.12202e-01    5.27825e-01    7.12202e-01    2.40413e-01    1.31956e-01    1.31956e-01    2.40413e-01
    7.00000e+00    1.00000e+00   -5.84030e-04   -5.49665e-05    5.08820e+00    2.26134e+00    5.64386e-01    5.65273e-01    5.66360e-01    5.65453e-01    1.41267e-01    1.41380e-01    1.41816e-01    1.40931e-01    2.84881e+00    9.61653e-01    7.12202e-01    5.27825e-01    7.12202e-01    2.40413e-01    1.31956e-01    1.31956e-01    2.40413e-01
    8.00000e+00    1.00000e+00   -6.17643e-04   -3.14058e-05    5.08633e+00    2.26055e+00    5.64124e-01    5.65098e-01    5.66203e-01    5.65202e-01    1.41227e-01    1.41325e-01    1.41787e-01    1.40822e-01    2.84881e+00    9.61653e-01    7.12202e-01    5.27825e-01    7.12202e-01    2.40413e-01    1.31956e-01    1.31956e-01    2.40413e-01
    9.00000e+00    1.00000e+00   -6.36109e-04   -1.20059e-05    5.08445e+00    2.25975e+00    5.63878e-01    5.64920e-01    5.66015e-01    5.64960e-01    1.41189e-01    1.41268e-01    1.41748e-01    1.40729e-01    2.84881e+00    9.61653e-01    7.12202e-01    5.27825e-01    7.12202e-01    2.40413e-01    1.31956e-01    1.31956e-01    2.40413e-01
    1.00000e+01    1.00000e+00   -6.39510e-04    4.75130e-06    5.08260e+00    2.25895e+00    5.63665e-01    5.64739e-01    5.65807e-01    5.64724e-01    1.41156e-01    1.41206e-01    1.41705e-01    1.40647e-01    2.84881e+00    9.61653e-01    7.12202e-01    5.27825e-01    7.12202e-01    2.40413e-01    1.31956e-01    1.31956e-01    2.40413e-01
    1.10000e+01    1.00000e+00   -6.30826e-04    1.78405e-05    5.08080e+00    2.25818e+00    5.63478e-01    5.64559e-01    5.65584e-01    5.64502e-01    1.41124e-01    1.41143e-01    1.41657e-01    1.40577e-01    2.84881e+00    9.61653e-01    7.12202e-01    5.27825e-01    7.12202e-01    2.40413e-01    1.31956e-01    1.31956e-01    2.40413e-01
    1.20000e+01    1.00000e+00   -6.12718e-04    2.78447e-05    5.07907e+00    2.25742e+00    5.63316e-01    5.64381e-01    5.65355e-01    5.64292e-01    1.41096e-01    1.41080e-01    1.41607e-01    1.40517e-01    2.84881e+00    9.61653e-01    7.12202e-01    5.27825e-01    7.12202e-01    2.40413e-01    1.31956e-01    1.31956e-01    2.40413e-01
    1.30000e+01    1.00000e+00   -5.88024e-04    3.51340e-05    5.07740e+00    2.25669e+00    5.63174e-01    5.64206e-01    5.65122e-01    5.64092e-01    1.41070e-01    1.41017e-01    1.41556e-01    1.40467e-01    2.84881e+00    9.61653e-01    7.12202e-01    5.27825e-01    7.12202e-01    2.40413e-01    1.31956e-01    1.31956e-01    2.40413e-01
    1.40000e+01    1.00000e+00   -5.59327e-04    4.04334e-05    5.07578e+00    2.25598e+00    5.63045e-01    5.64033e-01    5.64891e-01    5.63901e-01    1.41046e-01    1.40955e-01    1.41506e-01    1.40422e-01    2.84881e+00    9.61653e-01    7.12202e-01    5.27825e-01    7.12202e-01    2.40413e-01    1.31956e-01    1.31956e-01    2.40413e-01
    1.50000e+01    1.00000e+00   -5.28943e-04    4.30094e-05    5.07421e+00    2.25529e+00    5.62925e-01    5.63861e-01    5.64662e-01    5.63720e-01    1.41021e-01    1.40894e-01    1.41456e-01    1.40381e-01    2.84881e+00    9.61653e-01    7.12202e-01    5.27825e-01    7.12202e-01    2.40413e-01    1.31956e-01    1.31956e-01    2.40413e-01
    1.60000e+01    1.00000e+00   -4.98862e-04    4.38029e-05    5.07265e+00    2.25460e+00    5.62806e-01    5.63688e-01    5.64436e-01    5.63544e-01    1.40997e-01    1.40833e-01    1.41408e-01    1.40344e-01    2.84881e+00    9.61653e-01    7.12202e-01    5.27825e-01    7.12202e-01    2.40413e-01    1.31956e-01    1.31956e-01    2.40413e-01
    1.70000e+01    1.00000e+00   -4.70722e-04    4.32424e-05    5.07108e+00    2.25389e+00    5.62683e-01    5.63510e-01    5.64214e-01    5.63367e-01    1.40971e-01    1.40773e-01    1.41361e-01    1.40307e-01    2.84881e+00    9.61653e-01    7.12202e-01    5.27825e-01    7.12202e-01    2.40413e-01    1.31956e-01    1.31956e-01    2.40413e-01
    1.80000e+01    1.00000e+00   -4.46051e-04    4.07715e-05    5.06946e+00    2.25317e+00    5.62550e-01    5.63325e-01    5.63992e-01    5.63189e-01    1.40942e-01    1.40713e-01    1.41316e-01    1.40268e-01    2.84881e+00    9.61653e-01    7.12202e-01    5.27825e-01    7.12202e-01    2.40413e-01    1.31956e-01    1.31956e-01    2.40413e-01
    1.90000e+01    1.00000e+00   -4.26240e-04    3.62219e-05    5.06777e+00    2.25240e+00    5.62399e-01    5.63129e-01    5.63771e-01    5.63007e-01    1.40908e-01    1.40651e-01    1.41271e-01    1.40226e-01    2.84881e+00    9.61653e-01    7.12202e-01    5.27825e-01    7.12202e-01    2.40413e-01    1.31956e-01    1.31956e-01    2.40413e-01
    2.00000e+01    1.00000e+00   -4.12363e-04    3.06821e-05    5.06596e+00    2.25159e+00    5.62226e-01    5.62918e-01    5.63549e-01    5.62814e-01    1.40868e-01    1.40590e-01    1.41226e-01    1.40181e-01    2.84881e+00    9.61653e-01    7.12202e-01    5.27825e-01    7.12202e-01    2.40413e-01    1.31956e-01    1.31956e-01    2.40413e-01
    2.10000e+01    1.00000e+00   -4.05237e-04    2.36198e-05    5.06402e+00    2.25071e+00    5.62027e-01    5.62691e-01    5.63323e-01    5.62609e-01    1.40821e-01    1.40528e-01    1.41180e-01    1.40131e-01    2.84881e+00    9.61653e-01    7.12202e-01    5.27825e-01    7.12202e-01    2.40413e-01    1.31956e-01    1.31956e-01    2.40413e-01
    2.20000e+01    1.00000e+00   -4.05247e-04    1.48603e-05    5.06193e+00    2.24976e+00    5.61797e-01    5.62447e-01    5.63092e-01    5.62393e-01    1.40765e-01    1.40465e-01    1.41132e-01    1.40076e-01    2.84881e+00    9.61653e-01    7.12202e-01    5.27825e-01    7.12202e-01    2.40413e-01    1.31956e-01    1.31956e-01    2.40413e-01
    2.30000e+01    1.00000e+00   -4.11902e-04    5.66368e-06    5.05969e+00    2.24875e+00    5.61538e-01    5.62185e-01    5.62856e-01    5.62162e-01    1.40701e-01    1.40402e-01    1.41081e-01    1.40016e-01    2.84881e+00    9.61653e-01    7.12202e-01    5.27825e-01    7.12202e-01    2.40413e-01    1.31956e-01    1.31956e-01    2.40413e-01
    2.40000e+01    1.00000e+00   -4.23828e-04   -3.30415e-06    5.05731e+00    2.24767e+00    5.61253e-01    5.61910e-01    5.62612e-01    5.61916e-01    1.40628e-01    1.40340e-01    1.41025e-01    1.39953e-01    2.84881e+00    9.61653e-01    7.12202e-01    5.27825e-01    7.12202e-01    2.40413e-01    1.31956e-01    1.31956e-01    2.40413e-01
    2.50000e+01    1.00000e+00   -4.38843e-04   -1.24203e-05    5.05482e+00    2.24655e+00    5.60947e-01    5.61623e-01    5.62360e-01    5.61660e-01    1.40547e-01    1.40279e-01    1.40963e-01    1.39888e-01    2.84881e+00    9.61653e-01    7.12202e-01    5.27825e-01    7.12202e-01    2.40413e-01    1.31956e-01    1.31956e-01    2.40413e-01
    2.60000e+01    1.00000e+00   -4.53822e-04   -2.01494e-05    5.05225e+00    2.24540e+00    5.60631e-01    5.61332e-01    5.62097e-01    5.61396e-01    1.40461e-01    1.40219e-01    1.40893e-01    1.39824e-01    2.84881e+00    9.61653e-01    7.12202e-01    5.27825e-01    7.12202e-01    2.40413e-01    1.31956e-01    1.31956e-01    2.40413e-01
    2.70000e+01    1.00000e+00   -4.65046e-04   -2.56317e-05    5.04965e+00    2.24424e+00    5.60314e-01    5.61042e-01    5.61822e-01    5.61124e-01    1.40372e-01    1.40161e-01    1.40816e-01    1.39764e-01    2.84881e+00    9.61653e-01    7.12202e-01    5.27825e-01    7.12202e-01    2.40413e-01    1.31956e-01    1.31956e-01    2.40413e-01
    2.80000e+01    1.00000e+00   -4.68830e-04   -2.84596e-05    5.04707e+00    2.24309e+00    5.60009e-01    5.60758e-01    5.61535e-01    5.60851e-01    1.40283e-01    1.40104e-01    1.40728e-01    1.39709e-01    2.84881e+00    9.61653e-01    7.12202e-01    5.27825e-01    7.12202e-01    2.40413e-01    1.31956e-01    1.31956e-01    2.40413e-01
    2.90000e+01    1.00000e+00   -4.61942e-04   -2.87765e-05    5.04454e+00    2.24197e+00    5.59728e-01    5.60483e-01    5.61235e-01    5.60580e-01    1.40196e-01    1.40050e-01    1.40631e-01    1.39663e-01    2.84881e+00    9.61653e-01    7.12202e-01    5.27825e-01    7.12202e-01    2.40413e-01    1.31956e-01    1.31956e-01    2.40413e-01
    3.00000e+01    1.00000e+00   -4.41630e-04   -2.47468e-05    5.04211e+00    2.24091e+00    5.59479e-01    5.60227e-01    5.60924e-01    5.60313e-01    1.40114e-01    1.39997e-01    1.40524e-01    1.39626e-01    2.84881e+00    9.61653e-01    7.12202e-01    5.27825e-01    7.12202e-01    2.40413e-01    1.31956e-01    1.31956e-01    2.40413e-01
    3.10000e+01    1.00000e+00   -4.06408e-04   -1.69500e-05    5.03982e+00    2.23991e+00    5.59271e-01    5.59989e-01    5.60602e-01    5.60051e-01    1.40040e-01    1.39947e-01    1.40411e-01    1.39601e-01    2.84881e+00    9.61653e-01    7.12202e-01    5.27825e-01    7.12202e-01    2.40413e-01    1.31956e-01    1.31956e-01    2.40413e-01
    3.20000e+01    1.00000e+00   -3.58743e-04   -3.91177e-06    5.03770e+00    2.23899e+00    5.59108e-01    5.59775e-01    5.60288e-01    5.59795e-01    1.39972e-01    1.39900e-01    1.40285e-01    1.39586e-01    2.84881e+00    9.61653e-01    7.12202e-01    5.27825e-01    7.12202e-01    2.40413e-01    1.31956e-01    1.31956e-01    2.40413e-01
    3.30000e+01    1.00000e+00   -3.01329e-04    1.15590e-05    5.03578e+00    2.23816e+00    5.58987e-01    5.59575e-01    5.59975e-01    5.59545e-01    1.39919e-01    1.39862e-01    1.40170e-01    1.39583e-01    2.84881e+00    9.61653e-01    7.12202e-01    5.27825e-01    7.12202e-01    2.40413e-01    1.31956e-01    1.31956e-01    2.40413e-01
    3.40000e+01    1.00000e+00   -2.31566e-04    2.77539e-05    5.03408e+00    2.23744e+00    5.58906e-01    5.59426e-01    5.59668e-01    5.59337e-01    1.39870e-01    1.39808e-01    1.40047e-01    1.39581e-01    2.84881e+00    9.61653e-01    7.12202e-01    5.27825e-01    7.12202e-01    2.40413e-01    1.31956e-01    1.31956e-01    2.40413e-01
    3.50000e+01    1.00000e+00   -1.69251e-04    5.91895e-05    5.03259e+00    2.23680e+00    5.58878e-01    5.59255e-01    5.59432e-01    5.59076e-01    1.39834e-01    1.39801e-01    1.39923e-01    1.39593e-01    2.84881e+00    9.61653e-01    7.12202e-01    5.27825e-01    7.12202e-01    2.40413e-01    1.31956e-01    1.31956e-01    2.40413e-01
    3.60000e+01    1.00000e+00   -1.18540e-04    1.15441e-04    5.03143e+00    2.23631e+00    5.58830e-01    5.59242e-01    5.59227e-01    5.58850e-01    1.39803e-01    1.39778e-01    1.39809e-01    1.39584e-01    2.84881e+00    9.61653e-01    7.12202e-01    5.27825e-01    7.12202e-01    2.40413e-01    1.31956e-01    1.31956e-01    2.40413e-01
    3.70000e+01    1.00000e+00   -1.26119e-04    1.16753e-04    5.03059e+00    2.23596e+00    5.58831e-01    5.59040e-01    5.59276e-01    5.58664e-01    1.39741e-01    1.39774e-01    1.39730e-01    1.39573e-01    2.84881e+00    9.61653e-01    7.12202e-01    5.27825e-01    7.12202e-01    2.40413e-01    1.31956e-01    1.31956e-01    2.40413e-01
    3.80000e+01    1.00000e+00   -1.27428e-04    1.60937e-04    5.03001e+00    2.23572e+00    5.58673e-01    5.59081e-01    5.59061e-01    5.58577e-01    1.39739e-01    1.39862e-01    1.39713e-01    1.39582e-01    2.84881e+00    9.61653e-01    7.12202e-01    5.27825e-01    7.12202e-01    2.40413e-01    1.31956e-01    1.31956e-01    2.40413e-01
    3.90000e+01    1.00000e+00    0.00000e+00    0.00000e+00    5.02965e+00    2.23557e+00    5.58713e-01    5.59034e-01    5.58713e-01    5.58866e-01    1.39723e-01    1.39654e-01    1.39723e-01    1.39654e-01    2.84881e+00    9.61653e-01    7.12202e-01    5.27825e-01    7.12202e-01    2.40413e-01    1.31956e-01    1.31956e-01    2.40413e-01
    0.00000e+00    2.00000e+00    0.00000e+00    0.00000e+00    5.09609e+00    2.26463e+00    5.66316e-01    5.66420e-01    5.66316e-01    5.66031e-01    1.41697e-01    1.41491e-01    1.41697e-01    1.41491e-01    2.84881e+00    9.61653e-01    7.12202e-01    5.27825e-01    7.12202e-01    2.40413e-01    1.31956e-01    1.31956e-01    2.40413e-01
    1.00000e+00    2.00000e+00   -2.14814e-04   -3.15196e-04    5.09562e+00    2.26442e+00    5.66010e-01    5.65476e-01    5.66710e-01    5.66592e-01    1.41406e-01    1.41554e-01    1.41848e-01    1.41602e-01    2.84881e+00    9.61653e-01    7.12202e-01    5.27825e-01    7.12202e-01    2.40413e-01    1.31956e-01    1.31956e-01    2.40413e-01
    2.00000e+00    2.00000e+00   -4.30768e-04   -3.29075e-04    5.09508e+00    2.26420e+00    5.65462e-01    5.65502e-01    5.66964e-01    5.66645e-01    1.41294e-01    1.41590e-01    1.41907e-01    1.41510e-01    2.84881e+00    9.61653e-01    7.12202e-01    5.27825e-01    7.12202e-01    2.40413e-01    1.31956e-01    1.31956e-01    2.40413e-01
    3.00000e+00    2.00000e+00   -6.09282e-04   -2.54829e-04    5.09419e+00    2.26384e+00    5.65108e-01    5.65538e-01    5.67172e-01    5.66391e-01    1.41185e-01    1.41663e-01    1.41927e-01    1.41365e-01    2.84881e+00    9.61653e-01    7.12202e-01    5.27825e-01    7.12202e-01    2.40413e-01    1.31956e-01    1.31956e-01    2.40413e-01
    4.00000e+00    2.00000e+00   -8.03282e-04   -1.83203e-04    5.09286e+00    2.26328e+00    5.64650e-01    5.65479e-01    5.67381e-01    5.66083e-01    1.41120e-01    1.41704e-01    1.41965e-01    1.41189e-01    2.84881e+00    9.61653e-01    7.12202e-01    5.27825e-01    7.12202e-01    2.40413e-01    1.31956e-01    1.31956e-01    2.40413e-01
    5.00000e+00    2.00000e+00   -9.89461e-04   -1.07519e-04    5.09143e+00    2.26269e+00    5.64147e-01    5.65445e-01    5.67531e-01    5.65805e-01    1.41080e-01    1.41733e-01    1.42001e-01    1.41000e-01    2.84881e+00    9.61653e-01    7.12202e-01    5.27825e-01    7.12202e-01    2.40413e-01    1.31956e-01    1.31956e-01    2.40413e-01