TITLE="LBM output"
VARIABLES = "X", "Y", "U","V","density","f0","f1","f2","f3","f4","f5","f6","f7","f8","feq0","feq1","feq2","feq3","feq4","feq5","feq6","feq7","feq8",
ZONE T = "fluid", I=40, J=40, F=POINT
SOLUTIONTIME=44
    0.00000e+00    0.00000e+00    0.00000e+00    0.00000e+00    5.00000e+00    2.22222e+00    5.55555e-01    5.55555e-01    5.55555e-01    5.55555e-01    1.38889e-01    1.38889e-01    1.38889e-01    1.38889e-01    2.80321e+00    9.46262e-01    7.00803e-01    5.19377e-01    7.00803e-01    2.36566e-01    1.29844e-01    1.29844e-01    2.36566e-01
    1.00000e+00    0.00000e+00    0.00000e+00    0.00000e+00    5.00000e+00    2.22222e+00    5.55555e-01    5.55555e-01    5.55556e-01    5.55555e-01    1.38889e-01    1.38889e-01    1.38889e-01    1.38889e-01    2.80321e+00    9.46262e-01    7.00803e-01    5.19377e-01    7.00803e-01    2.36566e-01    1.29844e-01    1.29844e-01    2.36566e-01
    2.00000e+00    0.00000e+00    0.00000e+00    0.00000e+00    5.00000e+00    2.22222e+00    5.55556e-01    5.55555e-01    5.55556e-01    5.55555e-01    1.38889e-01    1.38889e-01    1.38889e-01    1.38889e-01    2.80321e+00    9.46262e-01    7.00803e-01    5.19377e-01    7.00803e-01    2.36566e-01    1.29844e-01    1.29844e-01    2.36566e-01
    3.00000e+00    0.00000e+00    0.00000e+00    0.00000e+00    5.00000e+00    2.22222e+00    5.55556e-01    5.55555e-01    5.55556e-01    5.55555e-01    1.38889e-01    1.38889e-01    1.38889e-01    1.38889e-01    2.80321e+00    9.46262e-01    7.00803e-01    5.19377e-01    7.00803e-01    2.36566e-01    1.29844e-01    1.29844e-01    2.36566e-01
    4.00000e+00    0.00000e+00    0.00000e+00    0.00000e+00    5.00000e+00    2.22222e+00    5.55556e-01    5.55555e-01    5.55556e-01    5.55555e-01    1.38889e-01    1.38889e-01    1.38889e-01    1.38889e-01    2.80321e+00    9.46262e-01    7.00803e-01    5.19377e-01    7.00803e-01    2.36566e-01    1.29844e-01    1.29844e-01    2.36566e-01
    5.00000e+00    0.00000e+00    0.00000e+00    0.00000e+00    5.00000e+00    2.22222e+00    5.55556e-01    5.55555e-01    5.55556e-01    5.55555e-01    1.38889e-01    1.38889e-01    1.38889e-01    1.38889e-01    2.80321e+00    9.46262e-01    7.00803e-01    5.19377e-01    7.00803e-01    2.36566e-01    1.29844e-01    1.29844e-01    2.36566e-01
    6.00000e+00    0.00000e+00    0.00000e+00    0.00000e+00    5.00000e+00    2.22222e+00    5.55556e-01    5.55555e-01    5.55556e-01    5.55555e-01    1.38889e-01    1.38889e-01    1.38889e-01    1.38889e-01    2.80321e+00    9.46262e-01    7.00803e-01    5.19377e-01    7.00803e-01    2.36566e-01    1.29844e-01    1.29844e-01    2.36566e-01
    7.00000e+00    0.00000e+00    0.00000e+00    0.00000e+00    5.00000e+00    2.22222e+00    5.55556e-01    5.55555e-01    5.55556e-01    5.55555e-01    1.38889e-01    1.38889e-01    1.38889e-01    1.38889e-01    2.80321e+00    9.46262e-01    7.00803e-01    5.19377e-01    7.00803e-01    2.36566e-01    1.29844e-01    1.29844e-01    2.36566e-01
    8.00000e+00    0.00000e+00    0.00000e+00    0.00000e+00    5.00000e+00    2.22222e+00    5.55556e-01    5.55555e-01    5.55556e-01    5.55555e-01    1.38889e-01    1.38889e-01    1.38889e-01    1.38889e-01    2.80321e+00    9.46262e-01    7.00803e-01    5.19377e-01    7.00803e-01    2.36566e-01    1.29844e-01    1.29844e-01    2.36566e-01
    9.00000e+00    0.00000e+00    0.00000e+00    0.00000e+00    5.00000e+00    2.22222e+00    5.55556e-01    5.55555e-01    5.55556e-01    5.55555e-01    1.38889e-01    1.38889e-01    1.38889e-01    1.38889e-01    2.80321e+00    9.46262e-01    7.00803e-01    5.19377e-01    7.00803e-01    2.36566e-01    1.29844e-01    1.29844e-01    2.36566e-01
    1.00000e+01    0.00000e+00    0.00000e+00    0.00000e+00    5.00000e+00    2.22222e+00    5.55556e-01    5.55555e-01    5.55556e-01    5.55555e-01    1.38889e-01    1.38889e-01    1.38889e-01    1.38889e-01    2.80321e+00    9.46262e-01    7.00803e-01    5.19377e-01    7.00803e-01    2.36566e-01    1.29844e-01    1.29844e-01    2.36566e-01
    1.10000e+01    0.00000e+00    0.00000e+00    0.00000e+00    5.00000e+00    2.22222e+00    5.55556e-01    5.55555e-01    5.55556e-01    5.55555e-01    1.38889e-01    1.38889e-01    1.38889e-01    1.38889e-01    2.80321e+00    9.46262e-01    7.00803e-01    5.19377e-01    7.00803e-01    2.36566e-01    1.29844e-01    1.29844e-01    2.36566e-01
    1.20000e+01    0.00000e+00    0.00000e+00    0.00000e+00    5.00000e+00    2.22222e+00    5.55556e-01    5.55555e-01    5.55556e-01    5.55555e-01    1.38889e-01    1.38889e-01    1.38889e-01    1.38889e-01    2.80321e+00    9.46262e-01    7.00803e-01    5.19377e-01    7.00803e-01    2.36566e-01    1.29844e-01    1.29844e-01    2.36566e-01
    1.30000e+01    0.00000e+00    0.00000e+00    0.00000e+00    5.00000e+00    2.22222e+00    5.55556e-01    5.55555e-01    5.55556e-01    5.55555e-01    1.38889e-01    1.38890e-01    1.38889e-01    1.38890e-01    2.80321e+00    9.46262e-01    7.00803e-01    5.19377e-01    7.00803e-01    2.36566e-01    1.29844e-01    1.29844e-01    2.36566e-01
    1.40000e+01    0.00000e+00    0.00000e+00    0.00000e+00    5.00000e+00    2.22222e+00    5.55556e-01    5.55554e-01    5.55556e-01    5.55554e-01    1.38889e-01    1.38890e-01    1.38889e-01    1.38890e-01    2.80321e+00    9.46262e-01    7.00803e-01    5.19377e-01    7.00803e-01    2.36566e-01    1.29844e-01    1.29844e-01    2.36566e-01
    1.50000e+01    0.00000e+00    0.00000e+00    0.00000e+00    5.00000e+00    2.22222e+00    5.55556e-01    5.55554e-01    5.55556e-01    5.55554e-01    1.38889e-01    1.38890e-01    1.38889e-01    1.38890e-01    2.80321e+00    9.46262e-01    7.00803e-01    5.19377e-01    7.00803e-01    2.36566e-01    1.29844e-01    1.29844e-01    2.36566e-01
    1.60000e+01    0.00000e+00    0.00000e+00    0.00000e+00    5.00000e+00    2.22222e+00    5.55556e-01    5.55554e-01    5.55556e-01    5.55554e-01    1.38889e-01    1.38890e-01    1.38889e-01    1.38890e-01    2.80321e+00    9.46262e-01    7.00803e-01    5.19377e-01    7.00803e-01    2.36566e-01    1.29844e-01    1.29844e-01    2.36566e-01
    1.70000e+01    0.00000e+00    0.00000e+00    0.00000e+00    5.00000e+00    2.22222e+00    5.55556e-01    5.55554e-01    5.55556e-01    5.55554e-01    1.38889e-01    1.38890e-01    1.38889e-01    1.38890e-01    2.80321e+00    9.46262e-01    7.00803e-01    5.19377e-01    7.00803e-01    2.36566e-01    1.29844e-01    1.29844e-01    2.36566e-01
    1.80000e+01    0.00000e+00    0.00000e+00    0.00000e+00    5.00000e+00    2.22222e+00    5.55556e-01    5.55554e-01    5.55556e-01    5.55554e-01    1.38889e-01    1.38890e-01    1.38889e-01    1.38890e-01    2.80321e+00    9.46262e-01    7.00803e-01    5.19377e-01    7.00803e-01    2.36566e-01    1.29844e-01    1.29844e-01    2.36566e-01
    1.90000e+01    0.00000e+00    0.00000e+00    0.00000e+00    5.00000e+00    2.22222e+00    5.55556e-01    5.55554e-01    5.55556e-01    5.55554e-01    1.38889e-01    1.38890e-01    1.38889e-01    1.38890e-01    2.80321e+00    9.46262e-01    7.00803e-01    5.19377e-01    7.00803e-01    2.36566e-01    1.29844e-01    1.29844e-01    2.36566e-01
    2.00000e+01    0.00000e+00    0.00000e+00    0.00000e+00    5.00000e+00    2.22222e+00    5.55556e-01    5.55554e-01    5.55556e-01    5.55554e-01    1.38889e-01    1.38890e-01    1.38889e-01    1.38890e-01    2.80321e+00    9.46262e-01    7.00803e-01    5.19377e-01    7.00803e-01    2.36566e-01    1.29844e-01    1.29844e-01    2.36566e-01
    2.10000e+01    0.00000e+00    0.00000e+00    0.00000e+00    5.00000e+00    2.22222e+00    5.55556e-01    5.55554e-01    5.55556e-01    5.55554e-01    1.38889e-01    1.38890e-01    1.38889e-01    1.38890e-01    2.80321e+00    9.46262e-01    7.00803e-01    5.19377e-01    7.00803e-01    2.36566e-01    1.29844e-01    1.29844e-01    2.36566e-01
    2.20000e+01    0.00000e+00    0.00000e+00    0.00000e+00    5.00000e+00    2.22222e+00    5.55556e-01    5.55555e-01    5.55556e-01    5.55555e-01    1.38889e-01    1.38890e-01    1.38889e-01    1.38890e-01    2.80321e+00    9.46262e-01    7.00803e-01    5.19377e-01    7.00803e-01    2.36566e-01    1.29844e-01    1.29844e-01    2.36566e-01
    2.30000e+01    0.00000e+00    0.00000e+00    0.00000e+00    5.00000e+00    2.22222e+00    5.55556e-01    5.55555e-01    5.55556e-01    5.55555e-01    1.38889e-01    1.38889e-01    1.38889e-01    1.38889e-01    2.80321e+00    9.46262e-01    7.00803e-01    5.19377e-01    7.00803e-01    2.36566e-01    1.29844e-01    1.29844e-01    2.36566e-01
    2.40000e+01    0.00000e+00    0.00000e+00    0.00000e+00    5.00000e+00    2.22222e+00    5.55556e-01    5.55555e-01    5.55556e-01    5.55555e-01    1.38889e-01    1.38890e-01    1.38889e-01    1.38890e-01    2.80321e+00    9.46262e-01    7.00803e-01    5.19377e-01    7.00803e-01    2.36566e-01    1.29844e-01    1.29844e-01    2.36566e-01
    2.50000e+01    0.00000e+00    0.00000e+00    0.00000e+00    5.00000e+00    2.22222e+00    5.55556e-01    5.55555e-01    5.55556e-01    5.55555e-01    1.38889e-01    1.38890e-01    1.38889e-01    1.38890e-01    2.80321e+00    9.46262e-01    7.00803e-01    5.19377e-01    7.00803e-01    2.36566e-01    1.29844e-01    1.29844e-01    2.36566e-01
    2.60000e+01    0.00000e+00    0.00000e+00    0.00000e+00    5.00000e+00    2.22222e+00    5.55556e-01    5.55555e-01    5.55556e-01    5.55555e-01    1.38889e-01    1.38889e-01    1.38889e-01    1.38889e-01    2.80321e+00    9.46262e-01    7.00803e-01    5.19377e-01    7.00803e-01    2.36566e-01    1.29844e-01    1.29844e-01    2.36566e-01
    2.70000e+01    0.00000e+00    0.00000e+00    0.00000e+00    5.00000e+00    2.22222e+00    5.55556e-01    5.55555e-01    5.55556e-01    5.55555e-01    1.38889e-01    1.38889e-01    1.38889e-01    1.38889e-01    2.80321e+00    9.46262e-01    7.00803e-01    5.19377e-01    7.00803e-01    2.36566e-01    1.29844e-01    1.29844e-01    2.36566e-01
    2.80000e+01    0.00000e+00    0.00000e+00    0.00000e+00    5.00000e+00    2.22222e+00    5.55556e-01    5.55555e-01    5.55556e-01    5.55555e-01    1.38889e-01    1.38889e-01    1.38889e-01    1.38889e-01    2.80321e+00    9.46262e-01    7.00803e-01    5.19377e-01    7.00803e-01    2.36566e-01    1.29844e-01    1.29844e-01    2.36566e-01
    2.90000e+01    0.00000e+00    0.00000e+00    0.00000e+00    5.00000e+00    2.22222e+00    5.55556e-01    5.55555e-01    5.55556e-01    5.55555e-01    1.38889e-01    1.38889e-01    1.38889e-01    1.38889e-01    2.80321e+00    9.46262e-01    7.00803e-01    5.19377e-01    7.00803e-01    2.36566e-01    1.29844e-01    1.29844e-01    2.36566e-01
    3.00000e+01    0.00000e+00    0.00000e+00    0.00000e+00    5.00000e+00    2.22222e+00    5.55556e-01    5.55555e-01    5.55556e-01    5.55555e-01    1.38889e-01    1.38889e-01    1.38889e-01    1.38889e-01    2.80321e+00    9.46262e-01    7.00803e-01    5.19377e-01    7.00803e-01    2.36566e-01    1.29844e-01    1.29844e-01    2.36566e-01
    3.10000e+01    0.00000e+00    0.00000e+00    0.00000e+00    5.00000e+00    2.22222e+00    5.55556e-01    5.55555e-01    5.55556e-01    5.55555e-01    1.38889e-01    1.38889e-01    1.38889e-01    1.38889e-01    2.80321e+00    9.46262e-01    7.00803e-01    5.19377e-01    7.00803e-01    2.36566e-01    1.29844e-01    1.29844e-01    2.36566e-01
    3.20000e+01    0.00000e+00    0.00000e+00    0.00000e+00    5.00000e+00    2.22222e+00    5.55556e-01    5.55555e-01    5.55556e-01    5.55555e-01    1.38889e-01    1.38889e-01    1.38889e-01    1.38889e-01    2.80321e+00    9.46262e-01    7.00803e-01    5.19377e-01    7.00803e-01    2.36566e-01    1.29844e-01    1.29844e-01    2.36566e-01
    3.30000e+01    0.00000e+00    0.00000e+00    0.00000e+00    5.00000e+00    2.22222e+00    5.55556e-01    5.55555e-01    5.55556e-01    5.55555e-01    1.38889e-01    1.38889e-01    1.38889e-01    1.38889e-01    2.80321e+00    9.46262e-01    7.00803e-01    5.19377e-01    7.00803e-01    2.36566e-01    1.29844e-01    1.29844e-01    2.36566e-01
    3.40000e+01    0.00000e+00    0.00000e+00    0.00000e+00    5.00000e+00    2.22222e+00    5.55556e-01    5.55555e-01    5.55556e-01    5.55555e-01    1.38889e-01    1.38889e-01    1.38889e-01    1.38889e-01    2.80321e+00    9.46262e-01    7.00803e-01    5.19377e-01    7.00803e-01    2.36566e-01    1.29844e-01    1.29844e-01    2.36566e-01
    3.50000e+01    0.00000e+00    0.00000e+00    0.00000e+00    5.00000e+00    2.22222e+00    5.55556e-01    5.55555e-01    5.55556e-01    5.55555e-01    1.38889e-01    1.38889e-01    1.38889e-01    1.38889e-01    2.80321e+00    9.46262e-01    7.00803e-01    5.19377e-01    7.00803e-01    2.36566e-01    1.29844e-01    1.29844e-01    2.36566e-01
    3.60000e+01    0.00000e+00    0.00000e+00    0.00000e+00    5.00000e+00    2.22222e+00    5.55556e-01    5.55555e-01    5.55556e-01    5.55555e-01    1.38889e-01    1.38889e-01    1.38889e-01    1.38889e-01    2.80321e+00    9.46262e-01    7.00803e-01    5.19377e-01    7.00803e-01    2.36566e-01    1.29844e-01    1.29844e-01    2.36566e-01
    3.70000e+01    0.00000e+00    0.00000e+00    0.00000e+00    5.00000e+00    2.22222e+00    5.55556e-01    5.55555e-01    5.55556e-01    5.55555e-01    1.38889e-01    1.38889e-01    1.38889e-01    1.38889e-01    2.80321e+00    9.46262e-01    7.00803e-01    5.19377e-01    7.00803e-01    2.36566e-01    1.29844e-01    1.29844e-01    2.36566e-01
    3.80000e+01    0.00000e+00    0.00000e+00    0.00000e+00    5.00000e+00    2.22222e+00    5.55556e-01    5.55556e-01    5.55555e-01    5.55556e-01    1.38889e-01    1.38889e-01    1.38889e-01    1.38889e-01    2.80321e+00    9.46262e-01    7.00803e-01    5.19377e-01    7.00803e-01    2.36566e-01    1.29844e-01    1.29844e-01    2.36566e-01
    3.90000e+01    0.00000e+00    0.00000e+00    0.00000e+00    5.00000e+00    2.22222e+00    5.55556e-01    5.55556e-01    5.55556e-01    5.55556e-01    1.38889e-01    1.38889e-01    1.38889e-01    1.38889e-01    2.80321e+00    9.46262e-01    7.00803e-01    5.19377e-01    7.00803e-01    2.36566e-01    1.29844e-01    1.29844e-01    2.36566e-01
    0.00000e+00    1.00000e+00    0.00000e+00    0.00000e+00    5.00000e+00    2.22222e+00    5.55555e-01    5.55555e-01    5.55555e-01    5.55555e-01    1.38889e-01    1.38889e-01    1.38889e-01    1.38889e-01    2.80321e+00    9.46262e-01    7.00803e-01    5.19377e-01    7.00803e-01    2.36566e-01    1.29844e-01    1.29844e-01    2.36566e-01
    1.00000e+00    1.00000e+00    7.00916e-08   -5.83626e-08    5.00000e+00    2.22222e+00    5.55556e-01    5.55555e-01    5.55555e-01    5.55556e-01    1.38889e-01    1.38889e-01    1.38889e-01    1.38889e-01    2.80321e+00    9.46262e-01    7.00803e-01    5.19377e-01    7.00803e-01    2.36566e-01    1.29844e-01    1.29844e-01    2.36566e-01
    2.00000e+00    1.00000e+00    8.47635e-08    1.50510e-08    5.00000e+00    2.22222e+00    5.55556e-01    5.55556e-01    5.55555e-01    5.55556e-01    1.38889e-01    1.38889e-01    1.38889e-01    1.38889e-01    2.80321e+00    9.46262e-01    7.00803e-01    5.19377e-01    7.00803e-01    2.36566e-01    1.29844e-01    1.29844e-01    2.36566e-01
    3.00000e+00    1.00000e+00    1.18662e-07    2.58395e-08    5.00000e+00    2.22222e+00    5.55556e-01    5.55556e-01    5.55555e-01    5.55556e-01    1.38889e-01    1.38889e-01    1.38889e-01    1.38889e-01    2.80321e+00    9.46262e-01    7.00803e-01    5.19377e-01    7.00803e-01    2.36566e-01    1.29844e-01    1.29844e-01    2.36566e-01
    4.00000e+00    1.00000e+00    1.07819e-07    3.07347e-08    5.00000e+00    2.22222e+00    5.55556e-01    5.55556e-01    5.55556e-01    5.55556e-01    1.38889e-01    1.38889e-01    1.38888e-01    1.38889e-01    2.80321e+00    9.46262e-01    7.00803e-01    5.19377e-01    7.00803e-01    2.36566e-01    1.29844e-01    1.29844e-01    2.36566e-01
    5.00000e+00    1.00000e+00    8.52636e-08    2.22469e-08    5.00000e+00    2.22222e+00    5.55556e-01    5.55556e-01    5.55556e-01    5.55556e-01    1.38889e-01    1.38889e-01    1.38888e-01    1.38889e-01    2.80321e+00    9.46262e-01    7.00803e-01    5.19377e-01    7.00803e-01    2.36566e-01    1.29844e-01    1.29844e-01    2.36566e-01
    6.00000e+00    1.00000e+00    5.48267e-08    1.41586e-08    5.00000e+00    2.22222e+00    5.55556e-01    5.55556e-01    5.55556e-01    5.55556e-01    1.38889e-01    1.38889e-01    1.38888e-01    1.38889e-01    2.80321e+00    9.46262e-01    7.00803e-01    5.19377e-01    7.00803e-01    2.36566e-01    1.29844e-01    1.29844e-01    2.36566e-01
    7.00000e+00    1.00000e+00    3.45065e-08    2.26748e-08    5.00000e+00    2.22222e+00    5.55556e-01    5.55556e-01    5.55556e-01    5.55556e-01    1.38888e-01    1.38889e-01    1.38888e-01    1.38889e-01    2.80321e+00    9.46262e-01    7.00803e-01    5.19377e-01    7.00803e-01    2.36566e-01    1.29844e-01    1.29844e-01    2.36566e-01
    8.00000e+00    1.00000e+00    2.52684e-08    1.89409e-08    5.00000e+00    2.22222e+00    5.55556e-01    5.55556e-01    5.55556e-01    5.55556e-01    1.38888e-01    1.38889e-01    1.38888e-01    1.38889e-01    2.80321e+00    9.46262e-01    7.00803e-01    5.19377e-01    7.00803e-01    2.36566e-01    1.29844e-01    1.29844e-01    2.36566e-01
    9.00000e+00    1.00000e+00    8.46808e-09   -2.24319e-09    5.00000e+00    2.22222e+00    5.55556e-01    5.55556e-01    5.55556e-01    5.55556e-01    1.38888e-01    1.38889e-01    1.38888e-01    1.38889e-01    2.80321e+00    9.46262e-01    7.00803e-01    5.19377e-01    7.00803e-01    2.36566e-01    1.29844e-01    1.29844e-01    2.36566e-01
    1.00000e+01    1.00000e+00   -5.86799e-09    8.64490e-09    5.00000e+00    2.22222e+00    5.55556e-01    5.55557e-01    5.55556e-01    5.55556e-01    1.38888e-01    1.38889e-01    1.38888e-01    1.38889e-01    2.80321e+00    9.46262e-01    7.00803e-01    5.19377e-01    7.00803e-01    2.36566e-01    1.29844e-01    1.29844e-01    2.36566e-01
    1.10000e+01    1.00000e+00    9.05349e-09    3.36645e-08    5.00000e+00    2.22222e+00    5.55556e-01    5.55557e-01    5.55556e-01    5.55556e-01    1.38888e-01    1.38889e-01    1.38888e-01    1.38889e-01    2.80321e+00    9.46262e-01    7.00803e-01    5.19377e-01    7.00803e-01    2.36566e-01    1.29844e-01    1.29844e-01    2.36566e-01
    1.20000e+01    1.00000e+00    2.72063e-08    7.30362e-09    5.00000e+00    2.22222e+00    5.55556e-01    5.55557e-01    5.55556e-01    5.55557e-01    1.38888e-01    1.38889e-01    1.38888e-01    1.38889e-01    2.80321e+00    9.46262e-01    7.00803e-01    5.19377e-01    7.00803e-01    2.36566e-01    1.29844e-01    1.29844e-01    2.36566e-01
    1.30000e+01    1.00000e+00    1.71152e-08   -1.04399e-08    5.00000e+00    2.22222e+00    5.55556e-01    5.55557e-01    5.55556e-01    5.55557e-01    1.38888e-01    1.38889e-01    1.38888e-01    1.38889e-01    2.80321e+00    9.46262e-01    7.00803e-01    5.19377e-01    7.00803e-01    2.36566e-01    1.29844e-01    1.29844e-01    2.36566e-01
    1.40000e+01    1.00000e+00    2.01332e-08    3.33555e-08    5.00000e+00    2.22222e+00    5.55556e-01    5.55557e-01    5.55556e-01    5.55557e-01    1.38888e-01    1.38889e-01    1.38888e-01    1.38888e-01    2.80321e+00    9.46262e-01    7.00803e-01    5.19377e-01    7.00803e-01    2.36566e-01    1.29844e-01    1.29844e-01    2.36566e-01
    1.50000e+01    1.00000e+00    4.59200e-08    2.60130e-08    5.00000e+00    2.22222e+00    5.55555e-01    5.55557e-01    5.55556e-01    5.55557e-01    1.38888e-01    1.38889e-01    1.38888e-01    1.38889e-01    2.80321e+00    9.46262e-01    7.00803e-01    5.19377e-01    7.00803e-01    2.36566e-01    1.29844e-01    1.29844e-01    2.36566e-01
    1.60000e+01    1.00000e+00    4.36879e-08   -2.21236e-08    5.00000e+00    2.22222e+00    5.55555e-01    5.55556e-01    5.55556e-01    5.55557e-01    1.38888e-01    1.38889e-01    1.38888e-01    1.38889e-01    2.80321e+00    9.46262e-01    7.00803e-01    5.19377e-01    7.00803e-01    2.36566e-01    1.29844e-01    1.29844e-01    2.36566e-01
    1.70000e+01    1.00000e+00    2.97716e-08    9.87317e-09    5.00000e+00    2.22222e+00    5.55555e-01    5.55556e-01    5.55556e-01    5.55557e-01    1.38888e-01    1.38889e-01    1.38888e-01    1.38889e-01    2.80321e+00    9.46262e-01    7.00803e-01    5.19377e-01    7.00803e-01    2.36566e-01    1.29844e-01    1.29844e-01    2.36566e-01
    1.80000e+01    1.00000e+00    3.92889e-08    3.04326e-08    5.00000e+00    2.22222e+00    5.55555e-01    5.55556e-01    5.55556e-01    5.55557e-01    1.38888e-01    1.38888e-01    1.38888e-01    1.38889e-01    2.80321e+00    9.46262e-01    7.00803e-01    5.19377e-01    7.00803e-01    2.36566e-01    1.29844e-01    1.29844e-01    2.36566e-01
    1.90000e+01    1.00000e+00    3.94188e-08   -1.69059e-08    5.00000e+00    2.22222e+00    5.55555e-01    5.55556e-01    5.55556e-01    5.55557e-01    1.38888e-01    1.38888e-01    1.38888e-01    1.38889e-01    2.80321e+00    9.46262e-01    7.00803e-01    5.19377e-01    7.00803e-01    2.36566e-01    1.29844e-01    1.29844e-01    2.36566e-01
    2.00000e+01    1.00000e+00    2.61239e-08   -8.09266e-09    5.00000e+00    2.22222e+00    5.55555e-01    5.55556e-01    5.55556e-01    5.55557e-01    1.38888e-01    1.38888e-01    1.38888e-01    1.38889e-01    2.80321e+00    9.46262e-01    7.00803e-01    5.19377e-01    7.00803e-01    2.36566e-01    1.29844e-01    1.29844e-01    2.36566e-01
    2.10000e+01    1.00000e+00    2.86905e-08    2.51664e-08    5.00000e+00    2.22222e+00    5.55555e-01    5.55556e-01    5.55556e-01    5.55557e-01    1.38888e-01    1.38889e-01    1.38888e-01    1.38889e-01    2.80321e+00    9.46262e-01    7.00803e-01    5.19377e-01    7.00803e-01    2.36566e-01    1.29844e-01    1.29844e-01    2.36566e-01
    2.20000e+01    1.00000e+00    3.01676e-08   -2.08906e-09    5.00000e+00    2.22222e+00    5.55555e-01    5.55556e-01    5.55556e-01    5.55556e-01    1.38888e-01    1.38889e-01    1.38888e-01    1.38889e-01    2.80321e+00    9.46262e-01    7.00803e-01    5.19377e-01    7.00803e-01    2.36566e-01    1.29844e-01    1.29844e-01    2.36566e-01
    2.30000e+01    1.00000e+00    1.90702e-08   -1.96669e-08    5.00000e+00    2.22222e+00    5.55555e-01    5.55556e-01    5.55556e-01    5.55557e-01    1.38888e-01    1.38889e-01    1.38888e-01    1.38889e-01    2.80321e+00    9.46262e-01    7.00803e-01    5.19377e-01    7.00803e-01    2.36566e-01    1.29844e-01    1.29844e-01    2.36566e-01
    2.40000e+01    1.00000e+00    6.42534e-09    3.49244e-09    5.00000e+00    2.22222e+00    5.55555e-01    5.55556e-01    5.55556e-01    5.55557e-01    1.38888e-01    1.38889e-01    1.38888e-01    1.38889e-01    2.80321e+00    9.46262e-01    7.00803e-01    5.19377e-01    7.00803e-01    2.36566e-01    1.29844e-01    1.29844e-01    2.36566e-01
    2.50000e+01    1.00000e+00   -7.59488e-09    1.90553e-09    5.00000e+00    2.22222e+00    5.55555e-01    5.55556e-01    5.55556e-01    5.55556e-01    1.38888e-01    1.38889e-01    1.38888e-01    1.38889e-01    2.80321e+00    9.46262e-01    7.00803e-01    5.19377e-01    7.00803e-01    2.36566e-01    1.29844e-01    1.29844e-01    2.36566e-01
    2.60000e+01    1.00000e+00   -2.57010e-08   -2.29637e-08    5.00000e+00    2.22222e+00    5.55555e-01    5.55556e-01    5.55556e-01    5.55556e-01    1.38888e-01    1.38889e-01    1.38888e-01    1.38889e-01    2.80321e+00    9.46262e-01    7.00803e-01    5.19377e-01    7.00803e-01    2.36566e-01    1.29844e-01    1.29844e-01    2.36566e-01
    2.70000e+01    1.00000e+00   -5.18954e-08   -1.41463e-08    5.00000e+00    2.22222e+00    5.55555e-01    5.55556e-01    5.55556e-01    5.55557e-01    1.38889e-01    1.38889e-01    1.38888e-01    1.38889e-01    2.80321e+00    9.46262e-01    7.00803e-01    5.19377e-01    7.00803e-01    2.36566e-01    1.29844e-01    1.29844e-01    2.36566e-01
    2.80000e+01    1.00000e+00   -7.85487e-08    7.49501e-10    5.00000e+00    2.22222e+00    5.55555e-01    5.55556e-01    5.55556e-01    5.55556e-01    1.38889e-01    1.38889e-01    1.38888e-01    1.38889e-01    2.80321e+00    9.46262e-01    7.00803e-01    5.19377e-01    7.00803e-01    2.36566e-01    1.29844e-01    1.29844e-01    2.36566e-01
    2.90000e+01    1.00000e+00   -9.80806e-08   -1.45295e-08    5.00000e+00    2.22222e+00    5.55555e-01    5.55556e-01    5.55556e-01    5.55556e-01    1.38889e-01    1.38889e-01    1.38888e-01    1.38889e-01    2.80321e+00    9.46262e-01    7.00803e-01    5.19377e-01    7.00803e-01    2.36566e-01    1.29844e-01    1.29844e-01    2.36566e-01
    3.00000e+01    1.00000e+00   -1.16540e-07   -1.50540e-08    5.00000e+00    2.22222e+00    5.55555e-01    5.55556e-01    5.55556e-01    5.55556e-01    1.38889e-01    1.38889e-01    1.38889e-01    1.38889e-01    2.80321e+00    9.46262e-01    7.00803e-01    5.19377e-01    7.00803e-01    2.36566e-01    1.29844e-01    1.29844e-01    2.36566e-01
    3.10000e+01    1.00000e+00   -1.27039e-07   -1.79828e-09    5.00000e+00    2.22222e+00    5.55555e-01    5.55556e-01    5.55556e-01    5.55556e-01    1.38889e-01    1.38889e-01    1.38889e-01    1.38889e-01    2.80321e+00    9.46262e-01    7.00803e-01    5.19377e-01    7.00803e-01    2.36566e-01    1.29844e-01    1.29844e-01    2.36566e-01
    3.20000e+01    1.00000e+00   -1.21562e-07   -1.08983e-08    5.00000e+00    2.22222e+00    5.55555e-01    5.55556e-01    5.55556e-01    5.55556e-01    1.38889e-01    1.38889e-01    1.38889e-01    1.38889e-01    2.80321e+00    9.46262e-01    7.00803e-01    5.19377e-01    7.00803e-01    2.36566e-01    1.29844e-01    1.29844e-01    2.36566e-01
    3.30000e+01    1.00000e+00   -1.10880e-07   -1.95046e-08    5.00000e+00    2.22222e+00    5.55555e-01    5.55556e-01    5.55556e-01    5.55556e-01    1.38889e-01    1.38889e-01    1.38889e-01    1.38889e-01    2.80321e+00    9.46262e-01    7.00803e-01    5.19377e-01    7.00803e-01    2.36566e-01    1.29844e-01    1.29844e-01    2.36566e-01
    3.40000e+01    1.00000e+00   -9.63089e-08   -1.98335e-08    5.00000e+00    2.22222e+00    5.55555e-01    5.55556e-01    5.55556e-01    5.55556e-01    1.38889e-01    1.38889e-01    1.38889e-01    1.38889e-01    2.80321e+00    9.46262e-01    7.00803e-01    5.19377e-01    7.00803e-01    2.36566e-01    1.29844e-01    1.29844e-01    2.36566e-01
    3.50000e+01    1.00000e+00   -7.85703e-08   -2.56699e-08    5.00000e+00    2.22222e+00    5.55555e-01    5.55556e-01    5.55556e-01    5.55556e-01    1.38889e-01    1.38889e-01    1.38889e-01    1.38889e-01    2.80321e+00    9.46262e-01    7.00803e-01    5.19377e-01    7.00803e-01    2.36566e-01    1.29844e-01    1.29844e-01    2.36566e-01
    3.60000e+01    1.00000e+00   -6.82169e-08   -2.79795e-08    5.00000e+00    2.22222e+00    5.55555e-01    5.55556e-01    5.55556e-01    5.55556e-01    1.38889e-01    1.38889e-01    1.38889e-01    1.38889e-01    2.80321e+00    9.46262e-01    7.00803e-01    5.19377e-01    7.00803e-01    2.36566e-01    1.29844e-01    1.29844e-01    2.36566e-01
    3.70000e+01    1.00000e+00   -5.25047e-08   -4.67627e-09    5.00000e+00    2.22222e+00    5.55555e-01    5.55556e-01    5.55556e-01    5.55556e-01    1.38889e-01    1.38889e-01    1.38889e-01    1.38889e-01    2.80321e+00    9.46262e-01    7.00803e-01    5.19377e-01    7.00803e-01    2.36566e-01    1.29844e-01    1.29844e-01    2.36566e-01
    3.80000e+01    1.00000e+00    4.43686e-09   -2.71887e-08    5.00000e+00    2.22222e+00    5.55555e-01    5.55556e-01    5.55555e-01    5.55556e-01    1.38889e-01    1.38889e-01    1.38889e-01    1.38889e-01    2.80321e+00    9.46262e-01    7.00803e-01    5.19377e-01    7.00803e-01    2.36566e-01    1.29844e-01    1.29844e-01    2.36566e-01
    3.90000e+01    1.00000e+00    0.00000e+00    0.00000e+00    5.00000e+00    2.22222e+00    5.55555e-01    5.55556e-01    5.55555e-01    5.55557e-01    1.38889e-01    1.38889e-01    1.38889e-01    1.38889e-01    2.80321e+00    9.46262e-01    7.00803e-01    5.19377e-01    7.00803e-01    2.36566e-01    1.29844e-01    1.29844e-01    2.36566e-01
    0.00000e+00    2.00000e+00    0.00000e+00    0.00000e+00    5.00000e+00    2.22222e+00    5.55556e-01    5.55555e-01    5.55556e-01    5.55555e-01    1.38889e-01    1.38889e-01    1.38889e-01    1.38889e-01    2.80321e+00    9.46262e-01    7.00803e-01    5.19377e-01    7.00803e-01    2.36566e-01    1.29844e-01    1.29844e-01    2.36566e-01
    1.00000e+00    2.00000e+00   -1.40262e-07   -2.35885e-08    5.00000e+00    2.22222e+00    5.55555e-01    5.55555e-01    5.55556e-01    5.55555e-01    1.38889e-01    1.38889e-01    1.38889e-01    1.38889e-01    2.80321e+00    9.46262e-01    7.00803e-01    5.19377e-01    7.00803e-01    2.36566e-01    1.29844e-01    1.29844e-01    2.36566e-01
    2.00000e+00    2.00000e+00   -1.70112e-07   -1.01045e-08    5.00000e+00    2.22222e+00    5.55555e-01    5.55555e-01    5.55556e-01    5.55555e-01    1.38889e-01    1.38889e-01    1.38889e-01    1.38889e-01    2.80321e+00    9.46262e-01    7.00803e-01    5.19377e-01    7.00803e-01    2.36566e-01    1.29844e-01    1.29844e-01    2.36566e-01
    3.00000e+00    2.00000e+00   -1.50753e-07    1.06145e-08    5.00000e+00    2.22222e+00    5.55555e-01    5.55555e-01    5.55556e-01    5.55555e-01    1.38889e-01    1.38889e-01    1.38889e-01    1.38889e-01    2.80321e+00    9.46262e-01    7.00803e-01    5.19377e-01    7.00803e-01    2.36566e-01    1.29844e-01    1.29844e-01    2.36566e-01
    4.00000e+00    2.00000e+00   -1.38371e-07    9.15184e-09    5.00000e+00    2.22222e+00    5.55555e-01    5.55555e-01    5.55556e-01    5.55555e-01    1.38889e-01    1.38889e-01    1.38889e-01    1.38889e-01    2.80321e+00    9.46262e-01    7.00803e-01    5.19377e-01    7.00803e-01    2.36566e-01    1.29844e-01    1.29844e-01    2.36566e-01
    5.00000e+00    2.00000e+00   -1.36522e-07    6.42581e-10    5.00000e+00    2.22222e+00    5.55555e-01    5.55555e-01    5.55556e-01    5.55555e-01    1.38889e-01    1.38889e-01    1.38889e-01    1.38889e-01    2.80321e+00    9.46262e-01    7.00803e-01    5.19377e-01    7.00803e-01    2.36566e-01    1.29844e-01    1.29844e-01    2.36566e-01