TITLE="LBM output"
VARIABLES = "X", "Y", "U","V","density","f0","f1","f2","f3","f4","f5","f6","f7","f8","feq0","feq1","feq2","feq3","feq4","feq5","feq6","feq7","feq8",
ZONE T = "fluid", I=40, J=40, F=POINT
SOLUTIONTIME=93
    0.00000e+00    0.00000e+00    0.00000e+00    0.00000e+00    4.96214e+00    2.20462e+00    5.51404e-01    5.51386e-01    5.51404e-01    5.51386e-01    1.38179e-01    1.37789e-01    1.38179e-01    1.37789e-01    2.78823e+00    9.41206e-01    6.97058e-01    5.16602e-01    6.97058e-01    2.35301e-01    1.29150e-01    1.29150e-01    2.35301e-01
    1.00000e+00    0.00000e+00    0.00000e+00    0.00000e+00    4.96662e+00    2.20626e+00    5.51026e-01    5.52376e-01    5.51841e-01    5.52376e-01    1.38474e-01    1.37894e-01    1.38474e-01    1.37894e-01    2.78823e+00    9.41206e-01    6.97058e-01    5.16602e-01    6.97058e-01    2.35301e-01    1.29150e-01    1.29150e-01    2.35301e-01
    2.00000e+00    0.00000e+00    0.00000e+00    0.00000e+00    4.97133e+00    2.20808e+00    5.51847e-01    5.52860e-01    5.52301e-01    5.52860e-01    1.38855e-01    1.37833e-01    1.38855e-01    1.37833e-01    2.78823e+00    9.41206e-01    6.97058e-01    5.16602e-01    6.97058e-01    2.35301e-01    1.29150e-01    1.29150e-01    2.35301e-01
    3.00000e+00    0.00000e+00    0.00000e+00    0.00000e+00    4.97696e+00    2.21048e+00    5.52139e-01    5.53612e-01    5.53061e-01    5.53612e-01    1.39307e-01    1.37721e-01    1.39307e-01    1.37721e-01    2.78823e+00    9.41206e-01    6.97058e-01    5.16602e-01    6.97058e-01    2.35301e-01    1.29150e-01    1.29150e-01    2.35301e-01
    4.00000e+00    0.00000e+00    0.00000e+00    0.00000e+00    4.98417e+00    2.21362e+00    5.52957e-01    5.54429e-01    5.53856e-01    5.54429e-01    1.39748e-01    1.37694e-01    1.39748e-01    1.37694e-01    2.78823e+00    9.41206e-01    6.97058e-01    5.16602e-01    6.97058e-01    2.35301e-01    1.29150e-01    1.29150e-01    2.35301e-01
    5.00000e+00    0.00000e+00    0.00000e+00    0.00000e+00    4.99168e+00    2.21698e+00    5.53740e-01    5.55285e-01    5.54744e-01    5.55285e-01    1.40180e-01    1.37640e-01    1.40180e-01    1.37640e-01    2.78823e+00    9.41206e-01    6.97058e-01    5.16602e-01    6.97058e-01    2.35301e-01    1.29150e-01    1.29150e-01    2.35301e-01
    6.00000e+00    0.00000e+00    0.00000e+00    0.00000e+00    4.99949e+00    2.22061e+00    5.54634e-01    5.56126e-01    5.55631e-01    5.56126e-01    1.40541e-01    1.37641e-01    1.40541e-01    1.37641e-01    2.78823e+00    9.41206e-01    6.97058e-01    5.16602e-01    6.97058e-01    2.35301e-01    1.29150e-01    1.29150e-01    2.35301e-01
    7.00000e+00    0.00000e+00    0.00000e+00    0.00000e+00    5.00637e+00    2.22395e+00    5.55593e-01    5.56776e-01    5.56376e-01    5.56776e-01    1.40809e-01    1.37640e-01    1.40809e-01    1.37640e-01    2.78823e+00    9.41206e-01    6.97058e-01    5.16602e-01    6.97058e-01    2.35301e-01    1.29150e-01    1.29150e-01    2.35301e-01
    8.00000e+00    0.00000e+00    0.00000e+00    0.00000e+00    5.01183e+00    2.22672e+00    5.56348e-01    5.57263e-01    5.56983e-01    5.57263e-01    1.40979e-01    1.37647e-01    1.40979e-01    1.37647e-01    2.78823e+00    9.41206e-01    6.97058e-01    5.16602e-01    6.97058e-01    2.35301e-01    1.29150e-01    1.29150e-01    2.35301e-01
    9.00000e+00    0.00000e+00    0.00000e+00    0.00000e+00    5.01565e+00    2.22880e+00    5.57013e-01    5.57530e-01    5.57382e-01    5.57530e-01    1.41043e-01    1.37655e-01    1.41043e-01    1.37655e-01    2.78823e+00    9.41206e-01    6.97058e-01    5.16602e-01    6.97058e-01    2.35301e-01    1.29150e-01    1.29150e-01    2.35301e-01
    1.00000e+01    0.00000e+00    0.00000e+00    0.00000e+00    5.01769e+00    2.23006e+00    5.57427e-01    5.57608e-01    5.57596e-01    5.57608e-01    1.41029e-01    1.37667e-01    1.41029e-01    1.37667e-01    2.78823e+00    9.41206e-01    6.97058e-01    5.16602e-01    6.97058e-01    2.35301e-01    1.29150e-01    1.29150e-01    2.35301e-01
    1.10000e+01    0.00000e+00    0.00000e+00    0.00000e+00    5.01828e+00    2.23060e+00    5.57658e-01    5.57540e-01    5.57650e-01    5.57540e-01    1.40958e-01    1.37686e-01    1.40958e-01    1.37686e-01    2.78823e+00    9.41206e-01    6.97058e-01    5.16602e-01    6.97058e-01    2.35301e-01    1.29150e-01    1.29150e-01    2.35301e-01
    1.20000e+01    0.00000e+00    0.00000e+00    0.00000e+00    5.01785e+00    2.23060e+00    5.57707e-01    5.57398e-01    5.57602e-01    5.57398e-01    1.40859e-01    1.37713e-01    1.40859e-01    1.37713e-01    2.78823e+00    9.41206e-01    6.97058e-01    5.16602e-01    6.97058e-01    2.35301e-01    1.29150e-01    1.29150e-01    2.35301e-01
    1.30000e+01    0.00000e+00    0.00000e+00    0.00000e+00    5.01690e+00    2.23027e+00    5.57646e-01    5.57239e-01    5.57499e-01    5.57239e-01    1.40757e-01    1.37749e-01    1.40757e-01    1.37749e-01    2.78823e+00    9.41206e-01    6.97058e-01    5.16602e-01    6.97058e-01    2.35301e-01    1.29150e-01    1.29150e-01    2.35301e-01
    1.40000e+01    0.00000e+00    0.00000e+00    0.00000e+00    5.01586e+00    2.22980e+00    5.57523e-01    5.57106e-01    5.57390e-01    5.57106e-01    1.40671e-01    1.37794e-01    1.40671e-01    1.37794e-01    2.78823e+00    9.41206e-01    6.97058e-01    5.16602e-01    6.97058e-01    2.35301e-01    1.29150e-01    1.29150e-01    2.35301e-01
    1.50000e+01    0.00000e+00    0.00000e+00    0.00000e+00    5.01505e+00    2.22939e+00    5.57395e-01    5.57026e-01    5.57305e-01    5.57026e-01    1.40610e-01    1.37845e-01    1.40610e-01    1.37845e-01    2.78823e+00    9.41206e-01    6.97058e-01    5.16602e-01    6.97058e-01    2.35301e-01    1.29150e-01    1.29150e-01    2.35301e-01
    1.60000e+01    0.00000e+00    0.00000e+00    0.00000e+00    5.01462e+00    2.22911e+00    5.57295e-01    5.57006e-01    5.57262e-01    5.57006e-01    1.40573e-01    1.37898e-01    1.40573e-01    1.37898e-01    2.78823e+00    9.41206e-01    6.97058e-01    5.16602e-01    6.97058e-01    2.35301e-01    1.29150e-01    1.29150e-01    2.35301e-01
    1.70000e+01    0.00000e+00    0.00000e+00    0.00000e+00    5.01460e+00    2.22901e+00    5.57242e-01    5.57037e-01    5.57262e-01    5.57037e-01    1.40558e-01    1.37948e-01    1.40558e-01    1.37948e-01    2.78823e+00    9.41206e-01    6.97058e-01    5.16602e-01    6.97058e-01    2.35301e-01    1.29150e-01    1.29150e-01    2.35301e-01
    1.80000e+01    0.00000e+00    0.00000e+00    0.00000e+00    5.01492e+00    2.22907e+00    5.57238e-01    5.57102e-01    5.57296e-01    5.57102e-01    1.40560e-01    1.37994e-01    1.40560e-01    1.37994e-01    2.78823e+00    9.41206e-01    6.97058e-01    5.16602e-01    6.97058e-01    2.35301e-01    1.29150e-01    1.29150e-01    2.35301e-01
    1.90000e+01    0.00000e+00    0.00000e+00    0.00000e+00    5.01548e+00    2.22926e+00    5.57274e-01    5.57188e-01    5.57356e-01    5.57188e-01    1.40569e-01    1.38036e-01    1.40569e-01    1.38036e-01    2.78823e+00    9.41206e-01    6.97058e-01    5.16602e-01    6.97058e-01    2.35301e-01    1.29150e-01    1.29150e-01    2.35301e-01
    2.00000e+01    0.00000e+00    0.00000e+00    0.00000e+00    5.01616e+00    2.22953e+00    5.57336e-01    5.57279e-01    5.57427e-01    5.57279e-01    1.40581e-01    1.38072e-01    1.40581e-01    1.38072e-01    2.78823e+00    9.41206e-01    6.97058e-01    5.16602e-01    6.97058e-01    2.35301e-01    1.29150e-01    1.29150e-01    2.35301e-01
    2.10000e+01    0.00000e+00    0.00000e+00    0.00000e+00    5.01687e+00    2.22983e+00    5.57411e-01    5.57366e-01    5.57500e-01    5.57366e-01    1.40596e-01    1.38104e-01    1.40596e-01    1.38104e-01    2.78823e+00    9.41206e-01    6.97058e-01    5.16602e-01    6.97058e-01    2.35301e-01    1.29150e-01    1.29150e-01    2.35301e-01
    2.20000e+01    0.00000e+00    0.00000e+00    0.00000e+00    5.01755e+00    2.23012e+00    5.57489e-01    5.57445e-01    5.57570e-01    5.57445e-01    1.40609e-01    1.38133e-01    1.40609e-01    1.38133e-01    2.78823e+00    9.41206e-01    6.97058e-01    5.16602e-01    6.97058e-01    2.35301e-01    1.29150e-01    1.29150e-01    2.35301e-01
    2.30000e+01    0.00000e+00    0.00000e+00    0.00000e+00    5.01818e+00    2.23040e+00    5.57561e-01    5.57516e-01    5.57636e-01    5.57516e-01    1.40619e-01    1.38161e-01    1.40619e-01    1.38161e-01    2.78823e+00    9.41206e-01    6.97058e-01    5.16602e-01    6.97058e-01    2.35301e-01    1.29150e-01    1.29150e-01    2.35301e-01
    2.40000e+01    0.00000e+00    0.00000e+00    0.00000e+00    5.01877e+00    2.23065e+00    5.57629e-01    5.57579e-01    5.57697e-01    5.57579e-01    1.40629e-01    1.38186e-01    1.40629e-01    1.38186e-01    2.78823e+00    9.41206e-01    6.97058e-01    5.16602e-01    6.97058e-01    2.35301e-01    1.29150e-01    1.29150e-01    2.35301e-01
    2.50000e+01    0.00000e+00    0.00000e+00    0.00000e+00    5.01933e+00    2.23091e+00    5.57693e-01    5.57635e-01    5.57761e-01    5.57635e-01    1.40636e-01    1.38212e-01    1.40636e-01    1.38212e-01    2.78823e+00    9.41206e-01    6.97058e-01    5.16602e-01    6.97058e-01    2.35301e-01    1.29150e-01    1.29150e-01    2.35301e-01
    2.60000e+01    0.00000e+00    0.00000e+00    0.00000e+00    5.01990e+00    2.23118e+00    5.57759e-01    5.57688e-01    5.57829e-01    5.57688e-01    1.40637e-01    1.38241e-01    1.40637e-01    1.38241e-01    2.78823e+00    9.41206e-01    6.97058e-01    5.16602e-01    6.97058e-01    2.35301e-01    1.29150e-01    1.29150e-01    2.35301e-01
    2.70000e+01    0.00000e+00    0.00000e+00    0.00000e+00    5.02056e+00    2.23150e+00    5.57829e-01    5.57747e-01    5.57922e-01    5.57747e-01    1.40634e-01    1.38273e-01    1.40634e-01    1.38273e-01    2.78823e+00    9.41206e-01    6.97058e-01    5.16602e-01    6.97058e-01    2.35301e-01    1.29150e-01    1.29150e-01    2.35301e-01
    2.80000e+01    0.00000e+00    0.00000e+00    0.00000e+00    5.02139e+00    2.23191e+00    5.57920e-01    5.57821e-01    5.58034e-01    5.57821e-01    1.40631e-01    1.38313e-01    1.40631e-01    1.38313e-01    2.78823e+00    9.41206e-01    6.97058e-01    5.16602e-01    6.97058e-01    2.35301e-01    1.29150e-01    1.29150e-01    2.35301e-01
    2.90000e+01    0.00000e+00    0.00000e+00    0.00000e+00    5.02256e+00    2.23248e+00    5.58034e-01    5.57920e-01    5.58212e-01    5.57920e-01    1.40632e-01    1.38366e-01    1.40632e-01    1.38366e-01    2.78823e+00    9.41206e-01    6.97058e-01    5.16602e-01    6.97058e-01    2.35301e-01    1.29150e-01    1.29150e-01    2.35301e-01
    3.00000e+01    0.00000e+00    0.00000e+00    0.00000e+00    5.02423e+00    2.23327e+00    5.58197e-01    5.58081e-01    5.58435e-01    5.58081e-01    1.40641e-01    1.38439e-01    1.40641e-01    1.38439e-01    2.78823e+00    9.41206e-01    6.97058e-01    5.16602e-01    6.97058e-01    2.35301e-01    1.29150e-01    1.29150e-01    2.35301e-01
    3.10000e+01    0.00000e+00    0.00000e+00    0.00000e+00    5.02668e+00    2.23442e+00    5.58424e-01    5.58322e-01    5.58810e-01    5.58322e-01    1.40666e-01    1.38524e-01    1.40666e-01    1.38524e-01    2.78823e+00    9.41206e-01    6.97058e-01    5.16602e-01    6.97058e-01    2.35301e-01    1.29150e-01    1.29150e-01    2.35301e-01
    3.20000e+01    0.00000e+00    0.00000e+00    0.00000e+00    5.02968e+00    2.23582e+00    5.58756e-01    5.58654e-01    5.59124e-01    5.58654e-01    1.40689e-01    1.38647e-01    1.40689e-01    1.38647e-01    2.78823e+00    9.41206e-01    6.97058e-01    5.16602e-01    6.97058e-01    2.35301e-01    1.29150e-01    1.29150e-01    2.35301e-01
    3.30000e+01    0.00000e+00    0.00000e+00    0.00000e+00    5.03337e+00    2.23759e+00    5.59120e-01    5.58982e-01    5.59705e-01    5.58982e-01    1.40713e-01    1.38779e-01    1.40713e-01    1.38779e-01    2.78823e+00    9.41206e-01    6.97058e-01    5.16602e-01    6.97058e-01    2.35301e-01    1.29150e-01    1.29150e-01    2.35301e-01
    3.40000e+01    0.00000e+00    0.00000e+00    0.00000e+00    5.03770e+00    2.23963e+00    5.59642e-01    5.59458e-01    5.60182e-01    5.59458e-01    1.40717e-01    1.38949e-01    1.40717e-01    1.38949e-01    2.78823e+00    9.41206e-01    6.97058e-01    5.16602e-01    6.97058e-01    2.35301e-01    1.29150e-01    1.29150e-01    2.35301e-01
    3.50000e+01    0.00000e+00    0.00000e+00    0.00000e+00    5.04054e+00    2.24100e+00    5.60117e-01    5.59801e-01    5.60286e-01    5.59801e-01    1.40585e-01    1.39187e-01    1.40585e-01    1.39187e-01    2.78823e+00    9.41206e-01    6.97058e-01    5.16602e-01    6.97058e-01    2.35301e-01    1.29150e-01    1.29150e-01    2.35301e-01
    3.60000e+01    0.00000e+00    0.00000e+00    0.00000e+00    5.04377e+00    2.24261e+00    5.60382e-01    5.59953e-01    5.61072e-01    5.59953e-01    1.40531e-01    1.39370e-01    1.40531e-01    1.39370e-01    2.78823e+00    9.41206e-01    6.97058e-01    5.16602e-01    6.97058e-01    2.35301e-01    1.29150e-01    1.29150e-01    2.35301e-01
    3.70000e+01    0.00000e+00    0.00000e+00    0.00000e+00    5.04658e+00    2.24381e+00    5.60899e-01    5.60516e-01    5.60901e-01    5.60516e-01    1.40338e-01    1.39633e-01    1.40338e-01    1.39633e-01    2.78823e+00    9.41206e-01    6.97058e-01    5.16602e-01    6.97058e-01    2.35301e-01    1.29150e-01    1.29150e-01    2.35301e-01
    3.80000e+01    0.00000e+00    0.00000e+00    0.00000e+00    5.04798e+00    2.24416e+00    5.60923e-01    5.60591e-01    5.61313e-01    5.60591e-01    1.40258e-01    1.39945e-01    1.40258e-01    1.39945e-01    2.78823e+00    9.41206e-01    6.97058e-01    5.16602e-01    6.97058e-01    2.35301e-01    1.29150e-01    1.29150e-01    2.35301e-01
    3.90000e+01    0.00000e+00    0.00000e+00    0.00000e+00    5.05041e+00    2.24500e+00    5.61105e-01    5.61161e-01    5.61105e-01    5.61161e-01    1.40313e-01    1.40127e-01    1.40313e-01    1.40127e-01    2.78823e+00    9.41206e-01    6.97058e-01    5.16602e-01    6.97058e-01    2.35301e-01    1.29150e-01    1.29150e-01    2.35301e-01
    0.00000e+00    1.00000e+00    0.00000e+00    0.00000e+00    4.96674e+00    2.20632e+00    5.52396e-01    5.51034e-01    5.52396e-01    5.51902e-01    1.38455e-01    1.37893e-01    1.38455e-01    1.37893e-01    2.78823e+00    9.41206e-01    6.97058e-01    5.16602e-01    6.97058e-01    2.35301e-01    1.29150e-01    1.29150e-01    2.35301e-01
    1.00000e+00    1.00000e+00   -7.45902e-04   -6.84948e-04    4.96889e+00    2.20717e+00    5.51127e-01    5.51127e-01    5.53534e-01    5.53310e-01    1.37589e-01    1.38112e-01    1.38850e-01    1.38073e-01    2.78823e+00    9.41206e-01    6.97058e-01    5.16602e-01    6.97058e-01    2.35301e-01    1.29150e-01    1.29150e-01    2.35301e-01
    2.00000e+00    1.00000e+00   -1.33153e-03   -7.18149e-04    4.97297e+00    2.20883e+00    5.50518e-01    5.51523e-01    5.55035e-01    5.53816e-01    1.37561e-01    1.38425e-01    1.39252e-01    1.38011e-01    2.78823e+00    9.41206e-01    6.97058e-01    5.16602e-01    6.97058e-01    2.35301e-01    1.29150e-01    1.29150e-01    2.35301e-01
    3.00000e+00    1.00000e+00   -2.00949e-03   -7.80258e-04    4.97841e+00    2.21114e+00    5.50103e-01    5.51966e-01    5.56857e-01    5.54478e-01    1.37475e-01    1.38769e-01    1.39787e-01    1.37830e-01    2.78823e+00    9.41206e-01    6.97058e-01    5.16602e-01    6.97058e-01    2.35301e-01    1.29150e-01    1.29150e-01    2.35301e-01
    4.00000e+00    1.00000e+00   -2.69143e-03   -8.43353e-04    4.98490e+00    2.21400e+00    5.49558e-01    5.52682e-01    5.58652e-01    5.55375e-01    1.37398e-01    1.39163e-01    1.40315e-01    1.37758e-01    2.78823e+00    9.41206e-01    6.97058e-01    5.16602e-01    6.97058e-01    2.35301e-01    1.29150e-01    1.29150e-01    2.35301e-01
    5.00000e+00    1.00000e+00   -3.29366e-03   -8.41774e-04    4.99184e+00    2.21714e+00    5.49281e-01    5.53451e-01    5.60410e-01    5.56169e-01    1.37395e-01    1.39559e-01    1.40793e-01    1.37645e-01    2.78823e+00    9.41206e-01    6.97058e-01    5.16602e-01    6.97058e-01    2.35301e-01    1.29150e-01    1.29150e-01    2.35301e-01
    6.00000e+00    1.00000e+00   -3.80875e-03   -7.86972e-04    4.99876e+00    2.22036e+00    5.49110e-01    5.54330e-01    5.62014e-01    5.56850e-01    1.37410e-01    1.39930e-01    1.41185e-01    1.37569e-01    2.78823e+00    9.41206e-01    6.97058e-01    5.16602e-01    6.97058e-01    2.35301e-01    1.29150e-01    1.29150e-01    2.35301e-01
    7.00000e+00    1.00000e+00   -4.20729e-03   -6.47515e-04    5.00500e+00    2.22337e+00    5.49071e-01    5.55245e-01    5.63341e-01    5.57307e-01    1.37489e-01    1.40253e-01    1.41472e-01    1.37449e-01    2.78823e+00    9.41206e-01    6.97058e-01    5.16602e-01    6.97058e-01    2.35301e-01    1.29150e-01    1.29150e-01    2.35301e-01
    8.00000e+00    1.00000e+00   -4.48603e-03   -4.66941e-04    5.01006e+00    2.22591e+00    5.49129e-01    5.56053e-01    5.64352e-01    5.57522e-01    1.37603e-01    1.40509e-01    1.41664e-01    1.37318e-01    2.78823e+00    9.41206e-01    6.97058e-01    5.16602e-01    6.97058e-01    2.35301e-01    1.29150e-01    1.29150e-01    2.35301e-01
    9.00000e+00    1.00000e+00   -4.65255e-03   -2.61142e-04    5.01372e+00    2.22785e+00    5.49233e-01    5.56746e-01    5.65018e-01    5.57539e-01    1.37731e-01    1.40679e-01    1.41760e-01    1.37166e-01    2.78823e+00    9.41206e-01    6.97058e-01    5.16602e-01    6.97058e-01    2.35301e-01    1.29150e-01    1.29150e-01    2.35301e-01
    1.00000e+01    1.00000e+00   -4.72247e-03   -5.88893e-05    5.01595e+00    2.22913e+00    5.49365e-01    5.57255e-01    5.65375e-01    5.57387e-01    1.37872e-01    1.40765e-01    1.41793e-01    1.37008e-01    2.78823e+00    9.41206e-01    6.97058e-01    5.16602e-01    6.97058e-01    2.35301e-01    1.29150e-01    1.29150e-01    2.35301e-01
    1.10000e+01    1.00000e+00   -4.72062e-03    1.11115e-04    5.01695e+00    2.22982e+00    5.49491e-01    5.57585e-01    5.65476e-01    5.57165e-01    1.37999e-01    1.40779e-01    1.41779e-01    1.36861e-01    2.78823e+00    9.41206e-01    6.97058e-01    5.16602e-01    6.97058e-01    2.35301e-01    1.29150e-01    1.29150e-01    2.35301e-01
    1.20000e+01    1.00000e+00   -4.66996e-03    2.31484e-04    5.01706e+00    2.23004e+00    5.49605e-01    5.57743e-01    5.65399e-01    5.56936e-01    1.38106e-01    1.40738e-01    1.41747e-01    1.36744e-01    2.78823e+00    9.41206e-01    6.97058e-01    5.16602e-01    6.97058e-01    2.35301e-01    1.29150e-01    1.29150e-01    2.35301e-01
    1.30000e+01    1.00000e+00   -4.59284e-03    2.97710e-04    5.01664e+00    2.22995e+00    5.49705e-01    5.57773e-01    5.65221e-01    5.56754e-01    1.38188e-01    1.40665e-01    1.41713e-01    1.36666e-01    2.78823e+00    9.41206e-01    6.97058e-01    5.16602e-01    6.97058e-01    2.35301e-01    1.29150e-01    1.29150e-01    2.35301e-01
    1.40000e+01    1.00000e+00   -4.50709e-03    3.14878e-04    5.01603e+00    2.22972e+00    5.49794e-01    5.57719e-01    5.65007e-01    5.56650e-01    1.38246e-01    1.40582e-01    1.41688e-01    1.36629e-01    2.78823e+00    9.41206e-01    6.97058e-01    5.16602e-01    6.97058e-01    2.35301e-01    1.29150e-01    1.29150e-01    2.35301e-01
    1.50000e+01    1.00000e+00   -4.42433e-03    2.93960e-04    5.01550e+00    2.22947e+00    5.49878e-01    5.57629e-01    5.64805e-01    5.56633e-01    1.38280e-01    1.40503e-01    1.41673e-01    1.36633e-01    2.78823e+00    9.41206e-01    6.97058e-01    5.16602e-01    6.97058e-01    2.35301e-01    1.29150e-01    1.29150e-01    2.35301e-01
    1.60000e+01    1.00000e+00   -4.35053e-03    2.51482e-04    5.01518e+00    2.22928e+00    5.49965e-01    5.57539e-01    5.64641e-01    5.56683e-01    1.38300e-01    1.40441e-01    1.41668e-01    1.36667e-01    2.78823e+00    9.41206e-01    6.97058e-01    5.16602e-01    6.97058e-01    2.35301e-01    1.29150e-01    1.29150e-01    2.35301e-01
    1.70000e+01    1.00000e+00   -4.28727e-03    2.02285e-04    5.01514e+00    2.22920e+00    5.50059e-01    5.57475e-01    5.64523e-01    5.56779e-01    1.38312e-01    1.40399e-01    1.41670e-01    1.36721e-01    2.78823e+00    9.41206e-01    6.97058e-01    5.16602e-01    6.97058e-01    2.35301e-01    1.29150e-01    1.29150e-01    2.35301e-01
    1.80000e+01    1.00000e+00   -4.23278e-03    1.56117e-04    5.01534e+00    2.22923e+00    5.50164e-01    5.57446e-01    5.64447e-01    5.56901e-01    1.38321e-01    1.40376e-01    1.41674e-01    1.36784e-01    2.78823e+00    9.41206e-01    6.97058e-01    5.16602e-01    6.97058e-01    2.35301e-01    1.29150e-01    1.29150e-01    2.35301e-01
    1.90000e+01    1.00000e+00   -4.18408e-03    1.18435e-04    5.01576e+00    2.22936e+00    5.50281e-01    5.57452e-01    5.64402e-01    5.57031e-01    1.38331e-01    1.40369e-01    1.41677e-01    1.36849e-01    2.78823e+00    9.41206e-01    6.97058e-01    5.16602e-01    6.97058e-01    2.35301e-01    1.29150e-01    1.29150e-01    2.35301e-01
    2.00000e+01    1.00000e+00   -4.13787e-03    9.13825e-05    5.01630e+00    2.22957e+00    5.50409e-01    5.57487e-01    5.64376e-01    5.57155e-01    1.38345e-01    1.40371e-01    1.41677e-01    1.36913e-01    2.78823e+00    9.41206e-01    6.97058e-01    5.16602e-01    6.97058e-01    2.35301e-01    1.29150e-01    1.29150e-01    2.35301e-01
    2.10000e+01    1.00000e+00   -4.09129e-03    7.34133e-05    5.01692e+00    2.22982e+00    5.50547e-01    5.57541e-01    5.64359e-01    5.57269e-01    1.38363e-01    1.40380e-01    1.41672e-01    1.36974e-01    2.78823e+00    9.41206e-01    6.97058e-01    5.16602e-01    6.97058e-01    2.35301e-01    1.29150e-01    1.29150e-01    2.35301e-01
    2.20000e+01    1.00000e+00   -4.04212e-03    6.11297e-05    5.01757e+00    2.23009e+00    5.50693e-01    5.57605e-01    5.64340e-01    5.57376e-01    1.38382e-01    1.40390e-01    1.41660e-01    1.37033e-01    2.78823e+00    9.41206e-01    6.97058e-01    5.16602e-01    6.97058e-01    2.35301e-01    1.29150e-01    1.29150e-01    2.35301e-01
    2.30000e+01    1.00000e+00   -3.98816e-03    5.36697e-05    5.01821e+00    2.23037e+00    5.50846e-01    5.57673e-01    5.64313e-01    5.57472e-01    1.38402e-01    1.40401e-01    1.41642e-01    1.37094e-01    2.78823e+00    9.41206e-01    6.97058e-01    5.16602e-01    6.97058e-01    2.35301e-01    1.29150e-01    1.29150e-01    2.35301e-01
    2.40000e+01    1.00000e+00   -3.92682e-03    5.03259e-05    5.01885e+00    2.23065e+00    5.51011e-01    5.57745e-01    5.64272e-01    5.57558e-01    1.38424e-01    1.40413e-01    1.41614e-01    1.37157e-01    2.78823e+00    9.41206e-01    6.97058e-01    5.16602e-01    6.97058e-01    2.35301e-01    1.29150e-01    1.29150e-01    2.35301e-01
    2.50000e+01    1.00000e+00   -3.85433e-03    5.08051e-05    5.01949e+00    2.23095e+00    5.51191e-01    5.57823e-01    5.64212e-01    5.57639e-01    1.38446e-01    1.40424e-01    1.41574e-01    1.37225e-01    2.78823e+00    9.41206e-01    6.97058e-01    5.16602e-01    6.97058e-01    2.35301e-01    1.29150e-01    1.29150e-01    2.35301e-01
    2.60000e+01    1.00000e+00   -3.76723e-03    5.81826e-05    5.02015e+00    2.23127e+00    5.51398e-01    5.57912e-01    5.64131e-01    5.57709e-01    1.38472e-01    1.40436e-01    1.41517e-01    1.37302e-01    2.78823e+00    9.41206e-01    6.97058e-01    5.16602e-01    6.97058e-01    2.35301e-01    1.29150e-01    1.29150e-01    2.35301e-01
    2.70000e+01    1.00000e+00   -3.66206e-03    7.29840e-05    5.02090e+00    2.23164e+00    5.51644e-01    5.58021e-01    5.64028e-01    5.57771e-01    1.38504e-01    1.40450e-01    1.41448e-01    1.37390e-01    2.78823e+00    9.41206e-01    6.97058e-01    5.16602e-01    6.97058e-01    2.35301e-01    1.29150e-01    1.29150e-01    2.35301e-01
    2.80000e+01    1.00000e+00   -3.53678e-03    9.52801e-05    5.02182e+00    2.23210e+00    5.51945e-01    5.58155e-01    5.63914e-01    5.57837e-01    1.38549e-01    1.40467e-01    1.41365e-01    1.37491e-01    2.78823e+00    9.41206e-01    6.97058e-01    5.16602e-01    6.97058e-01    2.35301e-01    1.29150e-01    1.29150e-01    2.35301e-01
    2.90000e+01    1.00000e+00   -3.39262e-03    1.25002e-04    5.02307e+00    2.23271e+00    5.52315e-01    5.58338e-01    5.63806e-01    5.57928e-01    1.38608e-01    1.40489e-01    1.41274e-01    1.37604e-01    2.78823e+00    9.41206e-01    6.97058e-01    5.16602e-01    6.97058e-01    2.35301e-01    1.29150e-01    1.29150e-01    2.35301e-01
    3.00000e+01    1.00000e+00   -3.23697e-03    1.63834e-04    5.02480e+00    2.23353e+00    5.52770e-01    5.58570e-01    5.63746e-01    5.58037e-01    1.38684e-01    1.40534e-01    1.41183e-01    1.37745e-01    2.78823e+00    9.41206e-01    6.97058e-01    5.16602e-01    6.97058e-01    2.35301e-01    1.29150e-01    1.29150e-01    2.35301e-01
    3.10000e+01    1.00000e+00   -3.06716e-03    1.98259e-04    5.02713e+00    2.23463e+00    5.53304e-01    5.58884e-01    5.63716e-01    5.58238e-01    1.38781e-01    1.40576e-01    1.41109e-01    1.37897e-01    2.78823e+00    9.41206e-01    6.97058e-01    5.16602e-01    6.97058e-01    2.35301e-01    1.29150e-01    1.29150e-01    2.35301e-01
    3.20000e+01    1.00000e+00   -2.88196e-03    2.41024e-04    5.03007e+00    2.23601e+00    5.53943e-01    5.59234e-01    5.63748e-01    5.58458e-01    1.38906e-01    1.40651e-01    1.41033e-01    1.38087e-01    2.78823e+00    9.41206e-01    6.97058e-01    5.16602e-01    6.97058e-01    2.35301e-01    1.29150e-01    1.29150e-01    2.35301e-01
    3.30000e+01    1.00000e+00   -2.65566e-03    3.05518e-04    5.03350e+00    2.23764e+00    5.54657e-01    5.59746e-01    5.63698e-01    5.58761e-01    1.39054e-01    1.40722e-01    1.40940e-01    1.38282e-01    2.78823e+00    9.41206e-01    6.97058e-01    5.16602e-01    6.97058e-01    2.35301e-01    1.29150e-01    1.29150e-01    2.35301e-01
    3.40000e+01    1.00000e+00   -2.34233e-03    3.14122e-04    5.03702e+00    2.23933e+00    5.55523e-01    5.60219e-01    5.63490e-01    5.59170e-01    1.39220e-01    1.40689e-01    1.40869e-01    1.38507e-01    2.78823e+00    9.41206e-01    6.97058e-01    5.16602e-01    6.97058e-01    2.35301e-01    1.29150e-01    1.29150e-01    2.35301e-01
    3.50000e+01    1.00000e+00   -1.96232e-03    3.66634e-04    5.04001e+00    2.24078e+00    5.56477e-01    5.60529e-01    5.63207e-01    5.59399e-01    1.39439e-01    1.40730e-01    1.40660e-01    1.38791e-01    2.78823e+00    9.41206e-01    6.97058e-01    5.16602e-01    6.97058e-01    2.35301e-01    1.29150e-01    1.29150e-01    2.35301e-01
    3.60000e+01    1.00000e+00   -1.44807e-03    4.15508e-04    5.04282e+00    2.24212e+00    5.57454e-01    5.61133e-01    5.62395e-01    5.59808e-01    1.39688e-01    1.40649e-01    1.40484e-01    1.39083e-01    2.78823e+00    9.41206e-01    6.97058e-01    5.16602e-01    6.97058e-01    2.35301e-01    1.29150e-01    1.29150e-01    2.35301e-01
    3.70000e+01    1.00000e+00   -9.14971e-04    3.57143e-04    5.04501e+00    2.24310e+00    5.58813e-01    5.61158e-01    5.61964e-01    5.59960e-01    1.39870e-01    1.40437e-01    1.40300e-01    1.39403e-01    2.78823e+00    9.41206e-01    6.97058e-01    5.16602e-01    6.97058e-01    2.35301e-01    1.29150e-01    1.29150e-01    2.35301e-01
    3.80000e+01    1.00000e+00   -4.87929e-04    3.49534e-04    5.04644e+00    2.24361e+00    5.59686e-01    5.61256e-01    5.61282e-01    5.60168e-01    1.40145e-01    1.40410e-01    1.40241e-01    1.39639e-01    2.78823e+00    9.41206e-01    6.97058e-01    5.16602e-01    6.97058e-01    2.35301e-01    1.29150e-01    1.29150e-01    2.35301e-01
    3.90000e+01    1.00000e+00    0.00000e+00    0.00000e+00    5.04743e+00    2.24391e+00    5.60484e-01    5.61296e-01    5.60484e-01    5.60690e-01    1.40246e-01    1.40041e-01    1.40246e-01    1.40041e-01    2.78823e+00    9.41206e-01    6.97058e-01    5.16602e-01    6.97058e-01    2.35301e-01    1.29150e-01    1.29150e-01    2.35301e-01
    0.00000e+00    2.00000e+00    0.00000e+00    0.00000e+00    4.97204e+00    2.20838e+00    5.52970e-01    5.51876e-01    5.52970e-01    5.52414e-01    1.38806e-01    1.37908e-01    1.38806e-01    1.37908e-01    2.78823e+00    9.41206e-01    6.97058e-01    5.16602e-01    6.97058e-01    2.35301e-01    1.29150e-01    1.29150e-01    2.35301e-01
    1.00000e+00    2.00000e+00   -8.43535e-04   -1.10644e-03    4.97342e+00    2.20901e+00    5.51552e-01    5.50747e-01    5.54281e-01    5.54507e-01    1.37591e-01    1.38200e-01    1.39196e-01    1.38339e-01    2.78823e+00    9.41206e-01    6.97058e-01    5.16602e-01    6.97058e-01    2.35301e-01    1.29150e-01    1.29150e-01    2.35301e-01
    2.00000e+00    2.00000e+00   -1.54891e-03   -1.15671e-03    4.97682e+00    2.21050e+00    5.50679e-01    5.51036e-01    5.55888e-01    5.54943e-01    1.37375e-01    1.38589e-01    1.39550e-01    1.38264e-01    2.78823e+00    9.41206e-01    6.97058e-01    5.16602e-01    6.97058e-01    2.35301e-01    1.29150e-01    1.29150e-01    2.35301e-01
    3.00000e+00    2.00000e+00   -2.30314e-03   -1.17170e-03    4.98118e+00    2.21245e+00    5.50058e-01    5.51429e-01    5.57650e-01    5.55404e-01    1.37158e-01    1.39008e-01    1.40029e-01    1.37999e-01    2.78823e+00    9.41206e-01    6.97058e-01    5.16602e-01    6.97058e-01    2.35301e-01    1.29150e-01    1.29150e-01    2.35301e-01
    4.00000e+00    2.00000e+00   -3.04821e-03   -1.26666e-03    4.98630e+00    2.21478e+00    5.49302e-01    5.51829e-01    5.59456e-01    5.56117e-01    1.36944e-01    1.39449e-01    1.40481e-01    1.37940e-01    2.78823e+00    9.41206e-01    6.97058e-01    5.16602e-01    6.97058e-01    2.35301e-01    1.29150e-01    1.29150e-01    2.35301e-01
    5.00000e+00    2.00000e+00   -3.72167e-03   -1.25983e-03    4.99185e+00    2.21736e+00    5.48775e-01    5.52469e-01    5.61154e-01    5.56757e-01    1.36757e-01    1.39911e-01    1.40857e-01    1.37812e-01    2.78823e+00    9.41206e-01    6.97058e-01    5.16602e-01    6.97058e-01    2.35301e-01    1.29150e-01    1.29150e-01    2.35301e-01