TITLE="LBM output"
VARIABLES = "X", "Y", "U","V","density","f0","f1","f2","f3","f4","f5","f6","f7","f8","feq0","feq1","feq2","feq3","feq4","feq5","feq6","feq7","feq8",
ZONE T = "fluid", I=40, J=40, F=POINT
SOLUTIONTIME=1319
    0.00000e+00    0.00000e+00    0.00000e+00    0.00000e+00    5.15740e+00    2.29201e+00    5.73051e-01    5.73047e-01    5.73051e-01    5.73047e-01    1.43345e-01    1.43251e-01    1.43345e-01    1.43251e-01    2.91745e+00    9.84824e-01    7.29362e-01    5.40542e-01    7.29362e-01    2.46206e-01    1.35136e-01    1.35136e-01    2.46206e-01
    1.00000e+00    0.00000e+00    0.00000e+00    0.00000e+00    5.15801e+00    2.29229e+00    5.72964e-01    5.73227e-01    5.73099e-01    5.73227e-01    1.43332e-01    1.43271e-01    1.43332e-01    1.43271e-01    2.91745e+00    9.84824e-01    7.29362e-01    5.40542e-01    7.29362e-01    2.46206e-01    1.35136e-01    1.35136e-01    2.46206e-01
    2.00000e+00    0.00000e+00    0.00000e+00    0.00000e+00    5.15799e+00    2.29228e+00    5.73160e-01    5.73159e-01    5.73034e-01    5.73159e-01    1.43362e-01    1.43235e-01    1.43362e-01    1.43235e-01    2.91745e+00    9.84824e-01    7.29362e-01    5.40542e-01    7.29362e-01    2.46206e-01    1.35136e-01    1.35136e-01    2.46206e-01
    3.00000e+00    0.00000e+00    0.00000e+00    0.00000e+00    5.15777e+00    2.29219e+00    5.72998e-01    5.73192e-01    5.73061e-01    5.73192e-01    1.43392e-01    1.43180e-01    1.43392e-01    1.43180e-01    2.91745e+00    9.84824e-01    7.29362e-01    5.40542e-01    7.29362e-01    2.46206e-01    1.35136e-01    1.35136e-01    2.46206e-01
    4.00000e+00    0.00000e+00    0.00000e+00    0.00000e+00    5.15777e+00    2.29219e+00    5.73085e-01    5.73144e-01    5.73028e-01    5.73144e-01    1.43436e-01    1.43155e-01    1.43436e-01    1.43155e-01    2.91745e+00    9.84824e-01    7.29362e-01    5.40542e-01    7.29362e-01    2.46206e-01    1.35136e-01    1.35136e-01    2.46206e-01
    5.00000e+00    0.00000e+00    0.00000e+00    0.00000e+00    5.15758e+00    2.29211e+00    5.73017e-01    5.73131e-01    5.73024e-01    5.73131e-01    1.43493e-01    1.43094e-01    1.43493e-01    1.43094e-01    2.91745e+00    9.84824e-01    7.29362e-01    5.40542e-01    7.29362e-01    2.46206e-01    1.35136e-01    1.35136e-01    2.46206e-01
    6.00000e+00    0.00000e+00    0.00000e+00    0.00000e+00    5.15750e+00    2.29207e+00    5.73035e-01    5.73111e-01    5.73009e-01    5.73111e-01    1.43550e-01    1.43028e-01    1.43550e-01    1.43028e-01    2.91745e+00    9.84824e-01    7.29362e-01    5.40542e-01    7.29362e-01    2.46206e-01    1.35136e-01    1.35136e-01    2.46206e-01
    7.00000e+00    0.00000e+00    0.00000e+00    0.00000e+00    5.15738e+00    2.29202e+00    5.73005e-01    5.73103e-01    5.73001e-01    5.73103e-01    1.43609e-01    1.42964e-01    1.43609e-01    1.42964e-01    2.91745e+00    9.84824e-01    7.29362e-01    5.40542e-01    7.29362e-01    2.46206e-01    1.35136e-01    1.35136e-01    2.46206e-01
    8.00000e+00    0.00000e+00    0.00000e+00    0.00000e+00    5.15729e+00    2.29199e+00    5.73007e-01    5.73088e-01    5.72991e-01    5.73088e-01    1.43671e-01    1.42893e-01    1.43671e-01    1.42893e-01    2.91745e+00    9.84824e-01    7.29362e-01    5.40542e-01    7.29362e-01    2.46206e-01    1.35136e-01    1.35136e-01    2.46206e-01
    9.00000e+00    0.00000e+00    0.00000e+00    0.00000e+00    5.15722e+00    2.29196e+00    5.72991e-01    5.73078e-01    5.72987e-01    5.73078e-01    1.43731e-01    1.42829e-01    1.43731e-01    1.42829e-01    2.91745e+00    9.84824e-01    7.29362e-01    5.40542e-01    7.29362e-01    2.46206e-01    1.35136e-01    1.35136e-01    2.46206e-01
    1.00000e+01    0.00000e+00    0.00000e+00    0.00000e+00    5.15717e+00    2.29195e+00    5.72991e-01    5.73069e-01    5.72984e-01    5.73069e-01    1.43791e-01    1.42763e-01    1.43791e-01    1.42763e-01    2.91745e+00    9.84824e-01    7.29362e-01    5.40542e-01    7.29362e-01    2.46206e-01    1.35136e-01    1.35136e-01    2.46206e-01
    1.10000e+01    0.00000e+00    0.00000e+00    0.00000e+00    5.15714e+00    2.29194e+00    5.72984e-01    5.73064e-01    5.72985e-01    5.73064e-01    1.43850e-01    1.42702e-01    1.43850e-01    1.42702e-01    2.91745e+00    9.84824e-01    7.29362e-01    5.40542e-01    7.29362e-01    2.46206e-01    1.35136e-01    1.35136e-01    2.46206e-01
    1.20000e+01    0.00000e+00    0.00000e+00    0.00000e+00    5.15714e+00    2.29195e+00    5.72987e-01    5.73060e-01    5.72988e-01    5.73060e-01    1.43905e-01    1.42644e-01    1.43905e-01    1.42644e-01    2.91745e+00    9.84824e-01    7.29362e-01    5.40542e-01    7.29362e-01    2.46206e-01    1.35136e-01    1.35136e-01    2.46206e-01
    1.30000e+01    0.00000e+00    0.00000e+00    0.00000e+00    5.15716e+00    2.29196e+00    5.72988e-01    5.73061e-01    5.72994e-01    5.73061e-01    1.43956e-01    1.42592e-01    1.43956e-01    1.42592e-01    2.91745e+00    9.84824e-01    7.29362e-01    5.40542e-01    7.29362e-01    2.46206e-01    1.35136e-01    1.35136e-01    2.46206e-01
    1.40000e+01    0.00000e+00    0.00000e+00    0.00000e+00    5.15721e+00    2.29200e+00    5.72995e-01    5.73063e-01    5.73003e-01    5.73063e-01    1.44003e-01    1.42544e-01    1.44003e-01    1.42544e-01    2.91745e+00    9.84824e-01    7.29362e-01    5.40542e-01    7.29362e-01    2.46206e-01    1.35136e-01    1.35136e-01    2.46206e-01
    1.50000e+01    0.00000e+00    0.00000e+00    0.00000e+00    5.15728e+00    2.29203e+00    5.73003e-01    5.73068e-01    5.73014e-01    5.73068e-01    1.44044e-01    1.42504e-01    1.44044e-01    1.42504e-01    2.91745e+00    9.84824e-01    7.29362e-01    5.40542e-01    7.29362e-01    2.46206e-01    1.35136e-01    1.35136e-01    2.46206e-01
    1.60000e+01    0.00000e+00    0.00000e+00    0.00000e+00    5.15737e+00    2.29208e+00    5.73015e-01    5.73076e-01    5.73027e-01    5.73076e-01    1.44076e-01    1.42472e-01    1.44076e-01    1.42472e-01    2.91745e+00    9.84824e-01    7.29362e-01    5.40542e-01    7.29362e-01    2.46206e-01    1.35136e-01    1.35136e-01    2.46206e-01
    1.70000e+01    0.00000e+00    0.00000e+00    0.00000e+00    5.15747e+00    2.29214e+00    5.73027e-01    5.73085e-01    5.73041e-01    5.73085e-01    1.44100e-01    1.42449e-01    1.44100e-01    1.42449e-01    2.91745e+00    9.84824e-01    7.29362e-01    5.40542e-01    7.29362e-01    2.46206e-01    1.35136e-01    1.35136e-01    2.46206e-01
    1.80000e+01    0.00000e+00    0.00000e+00    0.00000e+00    5.15758e+00    2.29219e+00    5.73041e-01    5.73094e-01    5.73055e-01    5.73094e-01    1.44114e-01    1.42436e-01    1.44114e-01    1.42436e-01    2.91745e+00    9.84824e-01    7.29362e-01    5.40542e-01    7.29362e-01    2.46206e-01    1.35136e-01    1.35136e-01    2.46206e-01
    1.90000e+01    0.00000e+00    0.00000e+00    0.00000e+00    5.15768e+00    2.29225e+00    5.73055e-01    5.73105e-01    5.73068e-01    5.73105e-01    1.44116e-01    1.42435e-01    1.44116e-01    1.42435e-01    2.91745e+00    9.84824e-01    7.29362e-01    5.40542e-01    7.29362e-01    2.46206e-01    1.35136e-01    1.35136e-01    2.46206e-01
    2.00000e+01    0.00000e+00    0.00000e+00    0.00000e+00    5.15777e+00    2.29230e+00    5.73068e-01    5.73114e-01    5.73080e-01    5.73114e-01    1.44105e-01    1.42445e-01    1.44105e-01    1.42445e-01    2.91745e+00    9.84824e-01    7.29362e-01    5.40542e-01    7.29362e-01    2.46206e-01    1.35136e-01    1.35136e-01    2.46206e-01
    2.10000e+01    0.00000e+00    0.00000e+00    0.00000e+00    5.15785e+00    2.29234e+00    5.73080e-01    5.73121e-01    5.73088e-01    5.73121e-01    1.44082e-01    1.42467e-01    1.44082e-01    1.42467e-01    2.91745e+00    9.84824e-01    7.29362e-01    5.40542e-01    7.29362e-01    2.46206e-01    1.35136e-01    1.35136e-01    2.46206e-01
    2.20000e+01    0.00000e+00    0.00000e+00    0.00000e+00    5.15789e+00    2.29237e+00    5.73089e-01    5.73125e-01    5.73094e-01    5.73125e-01    1.44045e-01    1.42501e-01    1.44045e-01    1.42501e-01    2.91745e+00    9.84824e-01    7.29362e-01    5.40542e-01    7.29362e-01    2.46206e-01    1.35136e-01    1.35136e-01    2.46206e-01
    2.30000e+01    0.00000e+00    0.00000e+00    0.00000e+00    5.15790e+00    2.29238e+00    5.73095e-01    5.73125e-01    5.73095e-01    5.73125e-01    1.43996e-01    1.42546e-01    1.43996e-01    1.42546e-01    2.91745e+00    9.84824e-01    7.29362e-01    5.40542e-01    7.29362e-01    2.46206e-01    1.35136e-01    1.35136e-01    2.46206e-01
    2.40000e+01    0.00000e+00    0.00000e+00    0.00000e+00    5.15788e+00    2.29238e+00    5.73096e-01    5.73121e-01    5.73091e-01    5.73121e-01    1.43936e-01    1.42600e-01    1.43936e-01    1.42600e-01    2.91745e+00    9.84824e-01    7.29362e-01    5.40542e-01    7.29362e-01    2.46206e-01    1.35136e-01    1.35136e-01    2.46206e-01
    2.50000e+01    0.00000e+00    0.00000e+00    0.00000e+00    5.15780e+00    2.29235e+00    5.73093e-01    5.73111e-01    5.73082e-01    5.73111e-01    1.43867e-01    1.42661e-01    1.43867e-01    1.42661e-01    2.91745e+00    9.84824e-01    7.29362e-01    5.40542e-01    7.29362e-01    2.46206e-01    1.35136e-01    1.35136e-01    2.46206e-01
    2.60000e+01    0.00000e+00    0.00000e+00    0.00000e+00    5.15769e+00    2.29231e+00    5.73085e-01    5.73096e-01    5.73068e-01    5.73096e-01    1.43789e-01    1.42728e-01    1.43789e-01    1.42728e-01    2.91745e+00    9.84824e-01    7.29362e-01    5.40542e-01    7.29362e-01    2.46206e-01    1.35136e-01    1.35136e-01    2.46206e-01
    2.70000e+01    0.00000e+00    0.00000e+00    0.00000e+00    5.15752e+00    2.29224e+00    5.73071e-01    5.73074e-01    5.73049e-01    5.73074e-01    1.43709e-01    1.42798e-01    1.43709e-01    1.42798e-01    2.91745e+00    9.84824e-01    7.29362e-01    5.40542e-01    7.29362e-01    2.46206e-01    1.35136e-01    1.35136e-01    2.46206e-01
    2.80000e+01    0.00000e+00    0.00000e+00    0.00000e+00    5.15732e+00    2.29216e+00    5.73053e-01    5.73048e-01    5.73026e-01    5.73048e-01    1.43626e-01    1.42868e-01    1.43626e-01    1.42868e-01    2.91745e+00    9.84824e-01    7.29362e-01    5.40542e-01    7.29362e-01    2.46206e-01    1.35136e-01    1.35136e-01    2.46206e-01
    2.90000e+01    0.00000e+00    0.00000e+00    0.00000e+00    5.15708e+00    2.29206e+00    5.73030e-01    5.73017e-01    5.72998e-01    5.73017e-01    1.43546e-01    1.42935e-01    1.43546e-01    1.42935e-01    2.91745e+00    9.84824e-01    7.29362e-01    5.40542e-01    7.29362e-01    2.46206e-01    1.35136e-01    1.35136e-01    2.46206e-01
    3.00000e+01    0.00000e+00    0.00000e+00    0.00000e+00    5.15682e+00    2.29195e+00    5.73003e-01    5.72982e-01    5.72971e-01    5.72982e-01    1.43469e-01    1.42997e-01    1.43469e-01    1.42997e-01    2.91745e+00    9.84824e-01    7.29362e-01    5.40542e-01    7.29362e-01    2.46206e-01    1.35136e-01    1.35136e-01    2.46206e-01
    3.10000e+01    0.00000e+00    0.00000e+00    0.00000e+00    5.15653e+00    2.29183e+00    5.72975e-01    5.72945e-01    5.72937e-01    5.72945e-01    1.43402e-01    1.43051e-01    1.43402e-01    1.43051e-01    2.91745e+00    9.84824e-01    7.29362e-01    5.40542e-01    7.29362e-01    2.46206e-01    1.35136e-01    1.35136e-01    2.46206e-01
    3.20000e+01    0.00000e+00    0.00000e+00    0.00000e+00    5.15625e+00    2.29170e+00    5.72943e-01    5.72907e-01    5.72911e-01    5.72907e-01    1.43342e-01    1.43096e-01    1.43342e-01    1.43096e-01    2.91745e+00    9.84824e-01    7.29362e-01    5.40542e-01    7.29362e-01    2.46206e-01    1.35136e-01    1.35136e-01    2.46206e-01
    3.30000e+01    0.00000e+00    0.00000e+00    0.00000e+00    5.15597e+00    2.29158e+00    5.72914e-01    5.72873e-01    5.72875e-01    5.72873e-01    1.43294e-01    1.43131e-01    1.43294e-01    1.43131e-01    2.91745e+00    9.84824e-01    7.29362e-01    5.40542e-01    7.29362e-01    2.46206e-01    1.35136e-01    1.35136e-01    2.46206e-01
    3.40000e+01    0.00000e+00    0.00000e+00    0.00000e+00    5.15572e+00    2.29148e+00    5.72883e-01    5.72837e-01    5.72861e-01    5.72837e-01    1.43257e-01    1.43156e-01    1.43257e-01    1.43156e-01    2.91745e+00    9.84824e-01    7.29362e-01    5.40542e-01    7.29362e-01    2.46206e-01    1.35136e-01    1.35136e-01    2.46206e-01
    3.50000e+01    0.00000e+00    0.00000e+00    0.00000e+00    5.15547e+00    2.29137e+00    5.72860e-01    5.72809e-01    5.72818e-01    5.72809e-01    1.43231e-01    1.43173e-01    1.43231e-01    1.43173e-01    2.91745e+00    9.84824e-01    7.29362e-01    5.40542e-01    7.29362e-01    2.46206e-01    1.35136e-01    1.35136e-01    2.46206e-01
    3.60000e+01    0.00000e+00    0.00000e+00    0.00000e+00    5.15533e+00    2.29131e+00    5.72829e-01    5.72775e-01    5.72837e-01    5.72775e-01    1.43223e-01    1.43180e-01    1.43223e-01    1.43180e-01    2.91745e+00    9.84824e-01    7.29362e-01    5.40542e-01    7.29362e-01    2.46206e-01    1.35136e-01    1.35136e-01    2.46206e-01
    3.70000e+01    0.00000e+00    0.00000e+00    0.00000e+00    5.15516e+00    2.29124e+00    5.72826e-01    5.72777e-01    5.72774e-01    5.72777e-01    1.43207e-01    1.43181e-01    1.43207e-01    1.43181e-01    2.91745e+00    9.84824e-01    7.29362e-01    5.40542e-01    7.29362e-01    2.46206e-01    1.35136e-01    1.35136e-01    2.46206e-01
    3.80000e+01    0.00000e+00    0.00000e+00    0.00000e+00    5.15511e+00    2.29121e+00    5.72796e-01    5.72750e-01    5.72838e-01    5.72750e-01    1.43198e-01    1.43184e-01    1.43198e-01    1.43184e-01    2.91745e+00    9.84824e-01    7.29362e-01    5.40542e-01    7.29362e-01    2.46206e-01    1.35136e-01    1.35136e-01    2.46206e-01
    3.90000e+01    0.00000e+00    0.00000e+00    0.00000e+00    5.15530e+00    2.29130e+00    5.72809e-01    5.72811e-01    5.72809e-01    5.72811e-01    1.43206e-01    1.43176e-01    1.43206e-01    1.43176e-01    2.91745e+00    9.84824e-01    7.29362e-01    5.40542e-01    7.29362e-01    2.46206e-01    1.35136e-01    1.35136e-01    2.46206e-01
    0.00000e+00    1.00000e+00    0.00000e+00    0.00000e+00    5.15804e+00    2.29230e+00    5.73226e-01    5.72967e-01    5.73226e-01    5.73110e-01    1.43339e-01    1.43265e-01    1.43339e-01    1.43265e-01    2.91745e+00    9.84824e-01    7.29362e-01    5.40542e-01    7.29362e-01    2.46206e-01    1.35136e-01    1.35136e-01    2.46206e-01
    1.00000e+00    1.00000e+00   -1.38126e-04   -9.73946e-05    5.15797e+00    2.29227e+00    5.72953e-01    5.72948e-01    5.73413e-01    5.73251e-01    1.43175e-01    1.43294e-01    1.43401e-01    1.43267e-01    2.91745e+00    9.84824e-01    7.29362e-01    5.40542e-01    7.29362e-01    2.46206e-01    1.35136e-01    1.35136e-01    2.46206e-01
    2.00000e+00    1.00000e+00   -2.42100e-04   -5.64237e-05    5.15793e+00    2.29225e+00    5.72726e-01    5.72998e-01    5.73576e-01    5.73165e-01    1.43216e-01    1.43327e-01    1.43477e-01    1.43190e-01    2.91745e+00    9.84824e-01    7.29362e-01    5.40542e-01    7.29362e-01    2.46206e-01    1.35136e-01    1.35136e-01    2.46206e-01
    3.00000e+00    1.00000e+00   -3.73510e-04   -5.00594e-05    5.15787e+00    2.29223e+00    5.72575e-01    5.72929e-01    5.73871e-01    5.73084e-01    1.43190e-01    1.43348e-01    1.43558e-01    1.43084e-01    2.91745e+00    9.84824e-01    7.29362e-01    5.40542e-01    7.29362e-01    2.46206e-01    1.35136e-01    1.35136e-01    2.46206e-01
    4.00000e+00    1.00000e+00   -5.57652e-04   -1.74045e-05    5.15777e+00    2.29219e+00    5.72275e-01    5.72968e-01    5.74198e-01    5.72995e-01    1.43155e-01    1.43388e-01    1.43664e-01    1.42943e-01    2.91745e+00    9.84824e-01    7.29362e-01    5.40542e-01    7.29362e-01    2.46206e-01    1.35136e-01    1.35136e-01    2.46206e-01
    5.00000e+00    1.00000e+00   -7.68059e-04   -2.59549e-06    5.15765e+00    2.29213e+00    5.71925e-01    5.72943e-01    5.74578e-01    5.72922e-01    1.43121e-01    1.43436e-01    1.43792e-01    1.42798e-01    2.91745e+00    9.84824e-01    7.29362e-01    5.40542e-01    7.29362e-01    2.46206e-01    1.35136e-01    1.35136e-01    2.46206e-01
    6.00000e+00    1.00000e+00   -9.97034e-04    5.26546e-06    5.15754e+00    2.29209e+00    5.71529e-01    5.72943e-01    5.74969e-01    5.72890e-01    1.43067e-01    1.43482e-01    1.43931e-01    1.42643e-01    2.91745e+00    9.84824e-01    7.29362e-01    5.40542e-01    7.29362e-01    2.46206e-01    1.35136e-01    1.35136e-01    2.46206e-01
    7.00000e+00    1.00000e+00   -1.23198e-03    1.01288e-05    5.15744e+00    2.29204e+00    5.71117e-01    5.72929e-01    5.75370e-01    5.72857e-01    1.43017e-01    1.43534e-01    1.44077e-01    1.42493e-01    2.91745e+00    9.84824e-01    7.29362e-01    5.40542e-01    7.29362e-01    2.46206e-01    1.35136e-01    1.35136e-01    2.46206e-01
    8.00000e+00    1.00000e+00   -1.47056e-03    1.52551e-05    5.15735e+00    2.29201e+00    5.70702e-01    5.72925e-01    5.75775e-01    5.72835e-01    1.42966e-01    1.43581e-01    1.44227e-01    1.42331e-01    2.91745e+00    9.84824e-01    7.29362e-01    5.40542e-01    7.29362e-01    2.46206e-01    1.35136e-01    1.35136e-01    2.46206e-01
    9.00000e+00    1.00000e+00   -1.70819e-03    1.67924e-05    5.15728e+00    2.29198e+00    5.70282e-01    5.72920e-01    5.76176e-01    5.72824e-01    1.42913e-01    1.43631e-01    1.44375e-01    1.42178e-01    2.91745e+00    9.84824e-01    7.29362e-01    5.40542e-01    7.29362e-01    2.46206e-01    1.35136e-01    1.35136e-01    2.46206e-01
    1.00000e+01    1.00000e+00   -1.94009e-03    1.80894e-05    5.15722e+00    2.29196e+00    5.69872e-01    5.72921e-01    5.76566e-01    5.72819e-01    1.42862e-01    1.43678e-01    1.44522e-01    1.42027e-01    2.91745e+00    9.84824e-01    7.29362e-01    5.40542e-01    7.29362e-01    2.46206e-01    1.35136e-01    1.35136e-01    2.46206e-01
    1.10000e+01    1.00000e+00   -2.16270e-03    1.73380e-05    5.15719e+00    2.29195e+00    5.69477e-01    5.72922e-01    5.76939e-01    5.72823e-01    1.42813e-01    1.43725e-01    1.44664e-01    1.41884e-01    2.91745e+00    9.84824e-01    7.29362e-01    5.40542e-01    7.29362e-01    2.46206e-01    1.35136e-01    1.35136e-01    2.46206e-01
    1.20000e+01    1.00000e+00   -2.37282e-03    1.55558e-05    5.15719e+00    2.29195e+00    5.69104e-01    5.72928e-01    5.77291e-01    5.72835e-01    1.42767e-01    1.43768e-01    1.44798e-01    1.41749e-01    2.91745e+00    9.84824e-01    7.29362e-01    5.40542e-01    7.29362e-01    2.46206e-01    1.35136e-01    1.35136e-01    2.46206e-01
    1.30000e+01    1.00000e+00   -2.56661e-03    1.17216e-05    5.15721e+00    2.29196e+00    5.68758e-01    5.72936e-01    5.77613e-01    5.72857e-01    1.42724e-01    1.43809e-01    1.44924e-01    1.41627e-01    2.91745e+00    9.84824e-01    7.29362e-01    5.40542e-01    7.29362e-01    2.46206e-01    1.35136e-01    1.35136e-01    2.46206e-01
    1.40000e+01    1.00000e+00   -2.73983e-03    6.54448e-06    5.15725e+00    2.29199e+00    5.68446e-01    5.72947e-01    5.77898e-01    5.72887e-01    1.42686e-01    1.43845e-01    1.45038e-01    1.41519e-01    2.91745e+00    9.84824e-01    7.29362e-01    5.40542e-01    7.29362e-01    2.46206e-01    1.35136e-01    1.35136e-01    2.46206e-01
    1.50000e+01    1.00000e+00   -2.88816e-03   -1.36808e-06    5.15731e+00    2.29202e+00    5.68174e-01    5.72960e-01    5.78138e-01    5.72930e-01    1.42652e-01    1.43875e-01    1.45136e-01    1.41428e-01    2.91745e+00    9.84824e-01    7.29362e-01    5.40542e-01    7.29362e-01    2.46206e-01    1.35136e-01    1.35136e-01    2.46206e-01
    1.60000e+01    1.00000e+00   -3.00711e-03   -1.14047e-05    5.15739e+00    2.29206e+00    5.67950e-01    5.72976e-01    5.78324e-01    5.72983e-01    1.42625e-01    1.43899e-01    1.45218e-01    1.41357e-01    2.91745e+00    9.84824e-01    7.29362e-01    5.40542e-01    7.29362e-01    2.46206e-01    1.35136e-01    1.35136e-01    2.46206e-01
    1.70000e+01    1.00000e+00   -3.09201e-03   -2.33642e-05    5.15748e+00    2.29210e+00    5.67782e-01    5.72992e-01    5.78448e-01    5.73044e-01    1.42604e-01    1.43915e-01    1.45279e-01    1.41309e-01    2.91745e+00    9.84824e-01    7.29362e-01    5.40542e-01    7.29362e-01    2.46206e-01    1.35136e-01    1.35136e-01    2.46206e-01
    1.80000e+01    1.00000e+00   -3.13868e-03   -3.75648e-05    5.15757e+00    2.29215e+00    5.67676e-01    5.73009e-01    5.78503e-01    5.73115e-01    1.42591e-01    1.43923e-01    1.45315e-01    1.41286e-01    2.91745e+00    9.84824e-01    7.29362e-01    5.40542e-01    7.29362e-01    2.46206e-01    1.35136e-01    1.35136e-01    2.46206e-01
    1.90000e+01    1.00000e+00   -3.14365e-03   -5.39144e-05    5.15766e+00    2.29220e+00    5.67637e-01    5.73024e-01    5.78482e-01    5.73193e-01    1.42586e-01    1.43920e-01    1.45325e-01    1.41290e-01    2.91745e+00    9.84824e-01    7.29362e-01    5.40542e-01    7.29362e-01    2.46206e-01    1.35136e-01    1.35136e-01    2.46206e-01
    2.00000e+01    1.00000e+00   -3.10430e-03   -7.06441e-05    5.15774e+00    2.29224e+00    5.67672e-01    5.73039e-01    5.78381e-01    5.73272e-01    1.42591e-01    1.43908e-01    1.45308e-01    1.41322e-01    2.91745e+00    9.84824e-01    7.29362e-01    5.40542e-01    7.29362e-01    2.46206e-01    1.35136e-01    1.35136e-01    2.46206e-01
    2.10000e+01    1.00000e+00   -3.01957e-03   -8.77355e-05    5.15779e+00    2.29228e+00    5.67782e-01    5.73052e-01    5.78198e-01    5.73350e-01    1.42604e-01    1.43885e-01    1.45261e-01    1.41383e-01    2.91745e+00    9.84824e-01    7.29362e-01    5.40542e-01    7.29362e-01    2.46206e-01    1.35136e-01    1.35136e-01    2.46206e-01
    2.20000e+01    1.00000e+00   -2.89018e-03   -1.04781e-04    5.15783e+00    2.29231e+00    5.67967e-01    5.73061e-01    5.77937e-01    5.73426e-01    1.42627e-01    1.43851e-01    1.45183e-01    1.41470e-01    2.91745e+00    9.84824e-01    7.29362e-01    5.40542e-01    7.29362e-01    2.46206e-01    1.35136e-01    1.35136e-01    2.46206e-01
    2.30000e+01    1.00000e+00   -2.71858e-03   -1.19664e-04    5.15783e+00    2.29232e+00    5.68225e-01    5.73067e-01    5.77602e-01    5.73490e-01    1.42658e-01    1.43809e-01    1.45078e-01    1.41583e-01    2.91745e+00    9.84824e-01    7.29362e-01    5.40542e-01    7.29362e-01    2.46206e-01    1.35136e-01    1.35136e-01    2.46206e-01
    2.40000e+01    1.00000e+00   -2.50937e-03   -1.31361e-04    5.15779e+00    2.29231e+00    5.68548e-01    5.73068e-01    5.77204e-01    5.73538e-01    1.42698e-01    1.43758e-01    1.44946e-01    1.41718e-01    2.91745e+00    9.84824e-01    7.29362e-01    5.40542e-01    7.29362e-01    2.46206e-01    1.35136e-01    1.35136e-01    2.46206e-01
    2.50000e+01    1.00000e+00   -2.26923e-03   -1.40051e-04    5.15771e+00    2.29229e+00    5.68927e-01    5.73065e-01    5.76755e-01    5.73571e-01    1.42745e-01    1.43700e-01    1.44791e-01    1.41870e-01    2.91745e+00    9.84824e-01    7.29362e-01    5.40542e-01    7.29362e-01    2.46206e-01    1.35136e-01    1.35136e-01    2.46206e-01
    2.60000e+01    1.00000e+00   -2.00635e-03   -1.43964e-04    5.15759e+00    2.29224e+00    5.69349e-01    5.73057e-01    5.76270e-01    5.73581e-01    1.42796e-01    1.43638e-01    1.44619e-01    1.42034e-01    2.91745e+00    9.84824e-01    7.29362e-01    5.40542e-01    7.29362e-01    2.46206e-01    1.35136e-01    1.35136e-01    2.46206e-01
    2.70000e+01    1.00000e+00   -1.73029e-03   -1.42330e-04    5.15743e+00    2.29218e+00    5.69799e-01    5.73045e-01    5.75768e-01    5.73566e-01    1.42852e-01    1.43574e-01    1.44436e-01    1.42203e-01    2.91745e+00    9.84824e-01    7.29362e-01    5.40542e-01    7.29362e-01    2.46206e-01    1.35136e-01    1.35136e-01    2.46206e-01
    2.80000e+01    1.00000e+00   -1.45143e-03   -1.35646e-04    5.15723e+00    2.29210e+00    5.70260e-01    5.73029e-01    5.75268e-01    5.73529e-01    1.42908e-01    1.43511e-01    1.44247e-01    1.42372e-01    2.91745e+00    9.84824e-01    7.29362e-01    5.40542e-01    7.29362e-01    2.46206e-01    1.35136e-01    1.35136e-01    2.46206e-01
    2.90000e+01    1.00000e+00   -1.18021e-03   -1.24213e-04    5.15699e+00    2.29201e+00    5.70715e-01    5.73008e-01    5.74787e-01    5.73469e-01    1.42963e-01    1.43449e-01    1.44061e-01    1.42532e-01    2.91745e+00    9.84824e-01    7.29362e-01    5.40542e-01    7.29362e-01    2.46206e-01    1.35136e-01    1.35136e-01    2.46206e-01
    3.00000e+01    1.00000e+00   -9.26271e-04   -1.07657e-04    5.15674e+00    2.29190e+00    5.71146e-01    5.72987e-01    5.74342e-01    5.73388e-01    1.43016e-01    1.43393e-01    1.43883e-01    1.42680e-01    2.91745e+00    9.84824e-01    7.29362e-01    5.40542e-01    7.29362e-01    2.46206e-01    1.35136e-01    1.35136e-01    2.46206e-01
    3.10000e+01    1.00000e+00   -6.98114e-04   -8.76052e-05    5.15647e+00    2.29179e+00    5.71538e-01    5.72962e-01    5.73948e-01    5.73291e-01    1.43064e-01    1.43344e-01    1.43720e-01    1.42810e-01    2.91745e+00    9.84824e-01    7.29362e-01    5.40542e-01    7.29362e-01    2.46206e-01    1.35136e-01    1.35136e-01    2.46206e-01
    3.20000e+01    1.00000e+00   -5.02647e-04   -6.48466e-05    5.15619e+00    2.29167e+00    5.71880e-01    5.72938e-01    5.73616e-01    5.73185e-01    1.43104e-01    1.43302e-01    1.43575e-01    1.42918e-01    2.91745e+00    9.84824e-01    7.29362e-01    5.40542e-01    7.29362e-01    2.46206e-01    1.35136e-01    1.35136e-01    2.46206e-01
    3.30000e+01    1.00000e+00   -3.44299e-04   -4.15393e-05    5.15593e+00    2.29156e+00    5.72162e-01    5.72912e-01    5.73351e-01    5.73074e-01    1.43138e-01    1.43270e-01    1.43457e-01    1.43003e-01    2.91745e+00    9.84824e-01    7.29362e-01    5.40542e-01    7.29362e-01    2.46206e-01    1.35136e-01    1.35136e-01    2.46206e-01
    3.40000e+01    1.00000e+00   -2.23038e-04   -1.88784e-05    5.15568e+00    2.29146e+00    5.72379e-01    5.72893e-01    5.73151e-01    5.72972e-01    1.43163e-01    1.43244e-01    1.43361e-01    1.43064e-01    2.91745e+00    9.84824e-01    7.29362e-01    5.40542e-01    7.29362e-01    2.46206e-01    1.35136e-01    1.35136e-01    2.46206e-01
    3.50000e+01    1.00000e+00   -1.38792e-04    2.41110e-06    5.15547e+00    2.29136e+00    5.72538e-01    5.72867e-01    5.73019e-01    5.72871e-01    1.43181e-01    1.43231e-01    1.43290e-01    1.43106e-01    2.91745e+00    9.84824e-01    7.29362e-01    5.40542e-01    7.29362e-01    2.46206e-01    1.35136e-01    1.35136e-01    2.46206e-01
    3.60000e+01    1.00000e+00   -8.53656e-05    2.25864e-05    5.15530e+00    2.29129e+00    5.72634e-01    5.72867e-01    5.72931e-01    5.72795e-01    1.43191e-01    1.43221e-01    1.43240e-01    1.43128e-01    2.91745e+00    9.84824e-01    7.29362e-01    5.40542e-01    7.29362e-01    2.46206e-01    1.35136e-01    1.35136e-01    2.46206e-01
    3.70000e+01    1.00000e+00   -5.86794e-05    2.63986e-05    5.15519e+00    2.29124e+00    5.72696e-01    5.72833e-01    5.72903e-01    5.72750e-01    1.43191e-01    1.43215e-01    1.43212e-01    1.43141e-01    2.91745e+00    9.84824e-01    7.29362e-01    5.40542e-01    7.29362e-01    2.46206e-01    1.35136e-01    1.35136e-01    2.46206e-01
    3.80000e+01    1.00000e+00   -3.89213e-05    3.70549e-05    5.15512e+00    2.29122e+00    5.72713e-01    5.72844e-01    5.72839e-01    5.72726e-01    1.43197e-01    1.43231e-01    1.43198e-01    1.43157e-01    2.91745e+00    9.84824e-01    7.29362e-01    5.40542e-01    7.29362e-01    2.46206e-01    1.35136e-01    1.35136e-01    2.46206e-01
    3.90000e+01    1.00000e+00    0.00000e+00    0.00000e+00    5.15509e+00    2.29120e+00    5.72753e-01    5.72836e-01    5.72753e-01    5.72788e-01    1.43203e-01    1.43176e-01    1.43203e-01    1.43176e-01    2.91745e+00    9.84824e-01    7.29362e-01    5.40542e-01    7.29362e-01    2.46206e-01    1.35136e-01    1.35136e-01    2.46206e-01
    0.00000e+00    2.00000e+00    0.00000e+00    0.00000e+00    5.15812e+00    2.29234e+00    5.73185e-01    5.73163e-01    5.73185e-01    5.73053e-01    1.43321e-01    1.43277e-01    1.43321e-01    1.43277e-01    2.91745e+00    9.84824e-01    7.29362e-01    5.40542e-01    7.29362e-01    2.46206e-01    1.35136e-01    1.35136e-01    2.46206e-01
    1.00000e+00    2.00000e+00   -1.60207e-04   -5.62484e-05    5.15799e+00    2.29228e+00    5.73004e-01    5.72858e-01    5.73554e-01    5.73066e-01    1.43212e-01    1.43361e-01    1.43391e-01    1.43264e-01    2.91745e+00    9.84824e-01    7.29362e-01    5.40542e-01    7.29362e-01    2.46206e-01    1.35136e-01    1.35136e-01    2.46206e-01
    2.00000e+00    2.00000e+00   -3.89683e-04   -6.57279e-07    5.15795e+00    2.29226e+00    5.72624e-01    5.72936e-01    5.73975e-01    5.72947e-01    1.43156e-01    1.43449e-01    1.43481e-01    1.43116e-01    2.91745e+00    9.84824e-01    7.29362e-01    5.40542e-01    7.29362e-01    2.46206e-01    1.35136e-01    1.35136e-01    2.46206e-01
    3.00000e+00    2.00000e+00   -6.60915e-04    6.87863e-05    5.15788e+00    2.29223e+00    5.72207e-01    5.72999e-01    5.74488e-01    5.72761e-01    1.43072e-01    1.43581e-01    1.43578e-01    1.42959e-01    2.91745e+00    9.84824e-01    7.29362e-01    5.40542e-01    7.29362e-01    2.46206e-01    1.35136e-01    1.35136e-01    2.46206e-01
    4.00000e+00    2.00000e+00   -9.88783e-04    1.37830e-04    5.15775e+00    2.29218e+00    5.71687e-01    5.73051e-01    5.75092e-01    5.72574e-01    1.42992e-01    1.43711e-01    1.43723e-01    1.42747e-01    2.91745e+00    9.84824e-01    7.29362e-01    5.40542e-01    7.29362e-01    2.46206e-01    1.35136e-01    1.35136e-01    2.46206e-01
    5.00000e+00    2.00000e+00   -1.35601e-03    1.87809e-04    5.15767e+00    2.29214e+00    5.71065e-01    5.73093e-01    5.75743e-01    5.72449e-01    1.42899e-01    1.43853e-01    1.43894e-01    1.42532e-01    2.91745e+00    9.84824e-01    7.29362e-01    5.40542e-01    7.29362e-01    2.46206e-01    1.35136e-01    1.35136e-01    2.46206e-01