TITLE="LBM output"
VARIABLES = "X", "Y", "U","V","density","f0","f1","f2","f3","f4","f5","f6","f7","f8","feq0","feq1","feq2","feq3","feq4","feq5","feq6","feq7","feq8",
ZONE T = "fluid", I=40, J=40, F=POINT
SOLUTIONTIME=1261
    0.00000e+00    0.00000e+00    0.00000e+00    0.00000e+00    5.13829e+00    2.28385e+00    5.70917e-01    5.70917e-01    5.70917e-01    5.70917e-01    1.42650e-01    1.42740e-01    1.42650e-01    1.42740e-01    2.91358e+00    9.83518e-01    7.28395e-01    5.39826e-01    7.28395e-01    2.45879e-01    1.34956e-01    1.34956e-01    2.45879e-01
    1.00000e+00    0.00000e+00    0.00000e+00    0.00000e+00    5.13771e+00    2.28357e+00    5.70998e-01    5.70750e-01    5.70866e-01    5.70750e-01    1.42661e-01    1.42724e-01    1.42661e-01    1.42724e-01    2.91358e+00    9.83518e-01    7.28395e-01    5.39826e-01    7.28395e-01    2.45879e-01    1.34956e-01    1.34956e-01    2.45879e-01
    2.00000e+00    0.00000e+00    0.00000e+00    0.00000e+00    5.13777e+00    2.28360e+00    5.70806e-01    5.70814e-01    5.70940e-01    5.70814e-01    1.42666e-01    1.42733e-01    1.42666e-01    1.42733e-01    2.91358e+00    9.83518e-01    7.28395e-01    5.39826e-01    7.28395e-01    2.45879e-01    1.34956e-01    1.34956e-01    2.45879e-01
    3.00000e+00    0.00000e+00    0.00000e+00    0.00000e+00    5.13805e+00    2.28372e+00    5.70975e-01    5.70778e-01    5.70919e-01    5.70778e-01    1.42684e-01    1.42755e-01    1.42684e-01    1.42755e-01    2.91358e+00    9.83518e-01    7.28395e-01    5.39826e-01    7.28395e-01    2.45879e-01    1.34956e-01    1.34956e-01    2.45879e-01
    4.00000e+00    0.00000e+00    0.00000e+00    0.00000e+00    5.13817e+00    2.28377e+00    5.70892e-01    5.70836e-01    5.70974e-01    5.70836e-01    1.42718e-01    1.42713e-01    1.42718e-01    1.42713e-01    2.91358e+00    9.83518e-01    7.28395e-01    5.39826e-01    7.28395e-01    2.45879e-01    1.34956e-01    1.34956e-01    2.45879e-01
    5.00000e+00    0.00000e+00    0.00000e+00    0.00000e+00    5.13857e+00    2.28394e+00    5.70982e-01    5.70870e-01    5.71003e-01    5.70870e-01    1.42745e-01    1.42706e-01    1.42745e-01    1.42706e-01    2.91358e+00    9.83518e-01    7.28395e-01    5.39826e-01    7.28395e-01    2.45879e-01    1.34956e-01    1.34956e-01    2.45879e-01
    6.00000e+00    0.00000e+00    0.00000e+00    0.00000e+00    5.13893e+00    2.28410e+00    5.70988e-01    5.70921e-01    5.71055e-01    5.70921e-01    1.42788e-01    1.42685e-01    1.42788e-01    1.42685e-01    2.91358e+00    9.83518e-01    7.28395e-01    5.39826e-01    7.28395e-01    2.45879e-01    1.34956e-01    1.34956e-01    2.45879e-01
    7.00000e+00    0.00000e+00    0.00000e+00    0.00000e+00    5.13941e+00    2.28431e+00    5.71053e-01    5.70972e-01    5.71107e-01    5.70972e-01    1.42832e-01    1.42669e-01    1.42832e-01    1.42669e-01    2.91358e+00    9.83518e-01    7.28395e-01    5.39826e-01    7.28395e-01    2.45879e-01    1.34956e-01    1.34956e-01    2.45879e-01
    8.00000e+00    0.00000e+00    0.00000e+00    0.00000e+00    5.13994e+00    2.28454e+00    5.71096e-01    5.71036e-01    5.71171e-01    5.71036e-01    1.42880e-01    1.42653e-01    1.42880e-01    1.42653e-01    2.91358e+00    9.83518e-01    7.28395e-01    5.39826e-01    7.28395e-01    2.45879e-01    1.34956e-01    1.34956e-01    2.45879e-01
    9.00000e+00    0.00000e+00    0.00000e+00    0.00000e+00    5.14053e+00    2.28479e+00    5.71163e-01    5.71106e-01    5.71236e-01    5.71106e-01    1.42927e-01    1.42637e-01    1.42927e-01    1.42637e-01    2.91358e+00    9.83518e-01    7.28395e-01    5.39826e-01    7.28395e-01    2.45879e-01    1.34956e-01    1.34956e-01    2.45879e-01
    1.00000e+01    0.00000e+00    0.00000e+00    0.00000e+00    5.14117e+00    2.28507e+00    5.71225e-01    5.71182e-01    5.71309e-01    5.71182e-01    1.42978e-01    1.42624e-01    1.42978e-01    1.42624e-01    2.91358e+00    9.83518e-01    7.28395e-01    5.39826e-01    7.28395e-01    2.45879e-01    1.34956e-01    1.34956e-01    2.45879e-01
    1.10000e+01    0.00000e+00    0.00000e+00    0.00000e+00    5.14186e+00    2.28536e+00    5.71299e-01    5.71263e-01    5.71384e-01    5.71263e-01    1.43028e-01    1.42614e-01    1.43028e-01    1.42614e-01    2.91358e+00    9.83518e-01    7.28395e-01    5.39826e-01    7.28395e-01    2.45879e-01    1.34956e-01    1.34956e-01    2.45879e-01
    1.20000e+01    0.00000e+00    0.00000e+00    0.00000e+00    5.14257e+00    2.28567e+00    5.71372e-01    5.71348e-01    5.71464e-01    5.71348e-01    1.43078e-01    1.42605e-01    1.43078e-01    1.42605e-01    2.91358e+00    9.83518e-01    7.28395e-01    5.39826e-01    7.28395e-01    2.45879e-01    1.34956e-01    1.34956e-01    2.45879e-01
    1.30000e+01    0.00000e+00    0.00000e+00    0.00000e+00    5.14332e+00    2.28599e+00    5.71452e-01    5.71438e-01    5.71546e-01    5.71438e-01    1.43126e-01    1.42600e-01    1.43126e-01    1.42600e-01    2.91358e+00    9.83518e-01    7.28395e-01    5.39826e-01    7.28395e-01    2.45879e-01    1.34956e-01    1.34956e-01    2.45879e-01
    1.40000e+01    0.00000e+00    0.00000e+00    0.00000e+00    5.14409e+00    2.28633e+00    5.71533e-01    5.71531e-01    5.71630e-01    5.71531e-01    1.43174e-01    1.42598e-01    1.43174e-01    1.42598e-01    2.91358e+00    9.83518e-01    7.28395e-01    5.39826e-01    7.28395e-01    2.45879e-01    1.34956e-01    1.34956e-01    2.45879e-01
    1.50000e+01    0.00000e+00    0.00000e+00    0.00000e+00    5.14488e+00    2.28666e+00    5.71617e-01    5.71625e-01    5.71716e-01    5.71625e-01    1.43218e-01    1.42600e-01    1.43218e-01    1.42600e-01    2.91358e+00    9.83518e-01    7.28395e-01    5.39826e-01    7.28395e-01    2.45879e-01    1.34956e-01    1.34956e-01    2.45879e-01
    1.60000e+01    0.00000e+00    0.00000e+00    0.00000e+00    5.14569e+00    2.28701e+00    5.71702e-01    5.71723e-01    5.71802e-01    5.71723e-01    1.43258e-01    1.42607e-01    1.43258e-01    1.42607e-01    2.91358e+00    9.83518e-01    7.28395e-01    5.39826e-01    7.28395e-01    2.45879e-01    1.34956e-01    1.34956e-01    2.45879e-01
    1.70000e+01    0.00000e+00    0.00000e+00    0.00000e+00    5.14650e+00    2.28735e+00    5.71788e-01    5.71821e-01    5.71889e-01    5.71821e-01    1.43293e-01    1.42619e-01    1.43293e-01    1.42619e-01    2.91358e+00    9.83518e-01    7.28395e-01    5.39826e-01    7.28395e-01    2.45879e-01    1.34956e-01    1.34956e-01    2.45879e-01
    1.80000e+01    0.00000e+00    0.00000e+00    0.00000e+00    5.14731e+00    2.28770e+00    5.71875e-01    5.71920e-01    5.71975e-01    5.71920e-01    1.43323e-01    1.42636e-01    1.43323e-01    1.42636e-01    2.91358e+00    9.83518e-01    7.28395e-01    5.39826e-01    7.28395e-01    2.45879e-01    1.34956e-01    1.34956e-01    2.45879e-01
    1.90000e+01    0.00000e+00    0.00000e+00    0.00000e+00    5.14811e+00    2.28804e+00    5.71961e-01    5.72019e-01    5.72060e-01    5.72019e-01    1.43345e-01    1.42661e-01    1.43345e-01    1.42661e-01    2.91358e+00    9.83518e-01    7.28395e-01    5.39826e-01    7.28395e-01    2.45879e-01    1.34956e-01    1.34956e-01    2.45879e-01
    2.00000e+01    0.00000e+00    0.00000e+00    0.00000e+00    5.14891e+00    2.28838e+00    5.72047e-01    5.72117e-01    5.72144e-01    5.72117e-01    1.43359e-01    1.42693e-01    1.43359e-01    1.42693e-01    2.91358e+00    9.83518e-01    7.28395e-01    5.39826e-01    7.28395e-01    2.45879e-01    1.34956e-01    1.34956e-01    2.45879e-01
    2.10000e+01    0.00000e+00    0.00000e+00    0.00000e+00    5.14969e+00    2.28871e+00    5.72131e-01    5.72213e-01    5.72225e-01    5.72213e-01    1.43365e-01    1.42732e-01    1.43365e-01    1.42732e-01    2.91358e+00    9.83518e-01    7.28395e-01    5.39826e-01    7.28395e-01    2.45879e-01    1.34956e-01    1.34956e-01    2.45879e-01
    2.20000e+01    0.00000e+00    0.00000e+00    0.00000e+00    5.15044e+00    2.28903e+00    5.72212e-01    5.72305e-01    5.72303e-01    5.72305e-01    1.43362e-01    1.42778e-01    1.43362e-01    1.42778e-01    2.91358e+00    9.83518e-01    7.28395e-01    5.39826e-01    7.28395e-01    2.45879e-01    1.34956e-01    1.34956e-01    2.45879e-01
    2.30000e+01    0.00000e+00    0.00000e+00    0.00000e+00    5.15116e+00    2.28934e+00    5.72290e-01    5.72394e-01    5.72378e-01    5.72394e-01    1.43351e-01    1.42831e-01    1.43351e-01    1.42831e-01    2.91358e+00    9.83518e-01    7.28395e-01    5.39826e-01    7.28395e-01    2.45879e-01    1.34956e-01    1.34956e-01    2.45879e-01
    2.40000e+01    0.00000e+00    0.00000e+00    0.00000e+00    5.15184e+00    2.28963e+00    5.72366e-01    5.72478e-01    5.72447e-01    5.72478e-01    1.43333e-01    1.42889e-01    1.43333e-01    1.42889e-01    2.91358e+00    9.83518e-01    7.28395e-01    5.39826e-01    7.28395e-01    2.45879e-01    1.34956e-01    1.34956e-01    2.45879e-01
    2.50000e+01    0.00000e+00    0.00000e+00    0.00000e+00    5.15247e+00    2.28990e+00    5.72436e-01    5.72556e-01    5.72512e-01    5.72556e-01    1.43308e-01    1.42950e-01    1.43308e-01    1.42950e-01    2.91358e+00    9.83518e-01    7.28395e-01    5.39826e-01    7.28395e-01    2.45879e-01    1.34956e-01    1.34956e-01    2.45879e-01
    2.60000e+01    0.00000e+00    0.00000e+00    0.00000e+00    5.15305e+00    2.29014e+00    5.72501e-01    5.72627e-01    5.72569e-01    5.72627e-01    1.43278e-01    1.43014e-01    1.43278e-01    1.43014e-01    2.91358e+00    9.83518e-01    7.28395e-01    5.39826e-01    7.28395e-01    2.45879e-01    1.34956e-01    1.34956e-01    2.45879e-01
    2.70000e+01    0.00000e+00    0.00000e+00    0.00000e+00    5.15358e+00    2.29037e+00    5.72561e-01    5.72690e-01    5.72624e-01    5.72690e-01    1.43246e-01    1.43078e-01    1.43246e-01    1.43078e-01    2.91358e+00    9.83518e-01    7.28395e-01    5.39826e-01    7.28395e-01    2.45879e-01    1.34956e-01    1.34956e-01    2.45879e-01
    2.80000e+01    0.00000e+00    0.00000e+00    0.00000e+00    5.15406e+00    2.29057e+00    5.72616e-01    5.72747e-01    5.72668e-01    5.72747e-01    1.43215e-01    1.43138e-01    1.43215e-01    1.43138e-01    2.91358e+00    9.83518e-01    7.28395e-01    5.39826e-01    7.28395e-01    2.45879e-01    1.34956e-01    1.34956e-01    2.45879e-01
    2.90000e+01    0.00000e+00    0.00000e+00    0.00000e+00    5.15447e+00    2.29075e+00    5.72663e-01    5.72794e-01    5.72714e-01    5.72794e-01    1.43184e-01    1.43194e-01    1.43184e-01    1.43194e-01    2.91358e+00    9.83518e-01    7.28395e-01    5.39826e-01    7.28395e-01    2.45879e-01    1.34956e-01    1.34956e-01    2.45879e-01
    3.00000e+01    0.00000e+00    0.00000e+00    0.00000e+00    5.15483e+00    2.29090e+00    5.72706e-01    5.72836e-01    5.72742e-01    5.72836e-01    1.43159e-01    1.43243e-01    1.43159e-01    1.43243e-01    2.91358e+00    9.83518e-01    7.28395e-01    5.39826e-01    7.28395e-01    2.45879e-01    1.34956e-01    1.34956e-01    2.45879e-01
    3.10000e+01    0.00000e+00    0.00000e+00    0.00000e+00    5.15514e+00    2.29104e+00    5.72741e-01    5.72869e-01    5.72783e-01    5.72869e-01    1.43138e-01    1.43283e-01    1.43138e-01    1.43283e-01    2.91358e+00    9.83518e-01    7.28395e-01    5.39826e-01    7.28395e-01    2.45879e-01    1.34956e-01    1.34956e-01    2.45879e-01
    3.20000e+01    0.00000e+00    0.00000e+00    0.00000e+00    5.15539e+00    2.29115e+00    5.72774e-01    5.72899e-01    5.72793e-01    5.72899e-01    1.43128e-01    1.43311e-01    1.43128e-01    1.43311e-01    2.91358e+00    9.83518e-01    7.28395e-01    5.39826e-01    7.28395e-01    2.45879e-01    1.34956e-01    1.34956e-01    2.45879e-01
    3.30000e+01    0.00000e+00    0.00000e+00    0.00000e+00    5.15562e+00    2.29125e+00    5.72797e-01    5.72914e-01    5.72835e-01    5.72914e-01    1.43125e-01    1.43330e-01    1.43125e-01    1.43330e-01    2.91358e+00    9.83518e-01    7.28395e-01    5.39826e-01    7.28395e-01    2.45879e-01    1.34956e-01    1.34956e-01    2.45879e-01
    3.40000e+01    0.00000e+00    0.00000e+00    0.00000e+00    5.15576e+00    2.29131e+00    5.72823e-01    5.72937e-01    5.72817e-01    5.72937e-01    1.43131e-01    1.43338e-01    1.43131e-01    1.43338e-01    2.91358e+00    9.83518e-01    7.28395e-01    5.39826e-01    7.28395e-01    2.45879e-01    1.34956e-01    1.34956e-01    2.45879e-01
    3.50000e+01    0.00000e+00    0.00000e+00    0.00000e+00    5.15596e+00    2.29140e+00    5.72831e-01    5.72944e-01    5.72889e-01    5.72944e-01    1.43148e-01    1.43328e-01    1.43148e-01    1.43328e-01    2.91358e+00    9.83518e-01    7.28395e-01    5.39826e-01    7.28395e-01    2.45879e-01    1.34956e-01    1.34956e-01    2.45879e-01
    3.60000e+01    0.00000e+00    0.00000e+00    0.00000e+00    5.15598e+00    2.29140e+00    5.72865e-01    5.72986e-01    5.72804e-01    5.72986e-01    1.43147e-01    1.43319e-01    1.43147e-01    1.43319e-01    2.91358e+00    9.83518e-01    7.28395e-01    5.39826e-01    7.28395e-01    2.45879e-01    1.34956e-01    1.34956e-01    2.45879e-01
    3.70000e+01    0.00000e+00    0.00000e+00    0.00000e+00    5.15615e+00    2.29148e+00    5.72840e-01    5.72947e-01    5.72952e-01    5.72947e-01    1.43186e-01    1.43305e-01    1.43186e-01    1.43305e-01    2.91358e+00    9.83518e-01    7.28395e-01    5.39826e-01    7.28395e-01    2.45879e-01    1.34956e-01    1.34956e-01    2.45879e-01
    3.80000e+01    0.00000e+00    0.00000e+00    0.00000e+00    5.15619e+00    2.29150e+00    5.72896e-01    5.73008e-01    5.72779e-01    5.73008e-01    1.43221e-01    1.43278e-01    1.43221e-01    1.43278e-01    2.91358e+00    9.83518e-01    7.28395e-01    5.39826e-01    7.28395e-01    2.45879e-01    1.34956e-01    1.34956e-01    2.45879e-01
    3.90000e+01    0.00000e+00    0.00000e+00    0.00000e+00    5.15566e+00    2.29126e+00    5.72857e-01    5.72853e-01    5.72857e-01    5.72853e-01    1.43203e-01    1.43288e-01    1.43203e-01    1.43288e-01    2.91358e+00    9.83518e-01    7.28395e-01    5.39826e-01    7.28395e-01    2.45879e-01    1.34956e-01    1.34956e-01    2.45879e-01
    0.00000e+00    1.00000e+00    0.00000e+00    0.00000e+00    5.13772e+00    2.28358e+00    5.70744e-01    5.70998e-01    5.70744e-01    5.70868e-01    1.42669e-01    1.42723e-01    1.42669e-01    1.42723e-01    2.91358e+00    9.83518e-01    7.28395e-01    5.39826e-01    7.28395e-01    2.45879e-01    1.34956e-01    1.34956e-01    2.45879e-01
    1.00000e+00    1.00000e+00    1.08982e-04    1.14924e-04    5.13781e+00    2.28362e+00    5.71019e-01    5.71013e-01    5.70672e-01    5.70641e-01    1.42815e-01    1.42717e-01    1.42600e-01    1.42714e-01    2.91358e+00    9.83518e-01    7.28395e-01    5.39826e-01    7.28395e-01    2.45879e-01    1.34956e-01    1.34956e-01    2.45879e-01
    2.00000e+00    1.00000e+00    1.10441e-04    1.17981e-04    5.13790e+00    2.28366e+00    5.71165e-01    5.70971e-01    5.70771e-01    5.70574e-01    1.42776e-01    1.42711e-01    1.42585e-01    1.42693e-01    2.91358e+00    9.83518e-01    7.28395e-01    5.39826e-01    7.28395e-01    2.45879e-01    1.34956e-01    1.34956e-01    2.45879e-01
    3.00000e+00    1.00000e+00    6.10714e-05    1.50181e-04    5.13805e+00    2.28372e+00    5.71077e-01    5.71056e-01    5.70864e-01    5.70529e-01    1.42776e-01    1.42749e-01    1.42603e-01    1.42677e-01    2.91358e+00    9.83518e-01    7.28395e-01    5.39826e-01    7.28395e-01    2.45879e-01    1.34956e-01    1.34956e-01    2.45879e-01
    4.00000e+00    1.00000e+00   -2.26983e-06    1.49797e-04    5.13828e+00    2.28382e+00    5.71032e-01    5.71031e-01    5.71037e-01    5.70515e-01    1.42778e-01    1.42772e-01    1.42654e-01    1.42642e-01    2.91358e+00    9.83518e-01    7.28395e-01    5.39826e-01    7.28395e-01    2.45879e-01    1.34956e-01    1.34956e-01    2.45879e-01
    5.00000e+00    1.00000e+00   -9.00341e-05    1.53727e-04    5.13862e+00    2.28397e+00    5.70926e-01    5.71082e-01    5.71233e-01    5.70541e-01    1.42757e-01    1.42804e-01    1.42711e-01    1.42602e-01    2.91358e+00    9.83518e-01    7.28395e-01    5.39826e-01    7.28395e-01    2.45879e-01    1.34956e-01    1.34956e-01    2.45879e-01
    6.00000e+00    1.00000e+00   -1.92862e-04    1.59848e-04    5.13902e+00    2.28414e+00    5.70814e-01    5.71111e-01    5.71472e-01    5.70550e-01    1.42757e-01    1.42839e-01    1.42794e-01    1.42543e-01    2.91358e+00    9.83518e-01    7.28395e-01    5.39826e-01    7.28395e-01    2.45879e-01    1.34956e-01    1.34956e-01    2.45879e-01
    7.00000e+00    1.00000e+00   -3.10021e-04    1.59690e-04    5.13948e+00    2.28434e+00    5.70671e-01    5.71164e-01    5.71730e-01    5.70601e-01    1.42742e-01    1.42876e-01    1.42880e-01    1.42480e-01    2.91358e+00    9.83518e-01    7.28395e-01    5.39826e-01    7.28395e-01    2.45879e-01    1.34956e-01    1.34956e-01    2.45879e-01
    8.00000e+00    1.00000e+00   -4.32213e-04    1.56106e-04    5.14001e+00    2.28457e+00    5.70522e-01    5.71215e-01    5.72000e-01    5.70664e-01    1.42732e-01    1.42916e-01    1.42978e-01    1.42419e-01    2.91358e+00    9.83518e-01    7.28395e-01    5.39826e-01    7.28395e-01    2.45879e-01    1.34956e-01    1.34956e-01    2.45879e-01
    9.00000e+00    1.00000e+00   -5.56209e-04    1.50327e-04    5.14060e+00    2.28482e+00    5.70373e-01    5.71274e-01    5.72277e-01    5.70742e-01    1.42720e-01    1.42956e-01    1.43078e-01    1.42358e-01    2.91358e+00    9.83518e-01    7.28395e-01    5.39826e-01    7.28395e-01    2.45879e-01    1.34956e-01    1.34956e-01    2.45879e-01
    1.00000e+01    1.00000e+00   -6.80095e-04    1.43403e-04    5.14123e+00    2.28509e+00    5.70229e-01    5.71336e-01    5.72557e-01    5.70827e-01    1.42712e-01    1.42996e-01    1.43182e-01    1.42298e-01    2.91358e+00    9.83518e-01    7.28395e-01    5.39826e-01    7.28395e-01    2.45879e-01    1.34956e-01    1.34956e-01    2.45879e-01
    1.10000e+01    1.00000e+00   -8.01396e-04    1.34222e-04    5.14191e+00    2.28538e+00    5.70090e-01    5.71404e-01    5.72835e-01    5.70927e-01    1.42704e-01    1.43037e-01    1.43286e-01    1.42242e-01    2.91358e+00    9.83518e-01    7.28395e-01    5.39826e-01    7.28395e-01    2.45879e-01    1.34956e-01    1.34956e-01    2.45879e-01
    1.20000e+01    1.00000e+00   -9.17591e-04    1.22959e-04    5.14262e+00    2.28569e+00    5.69962e-01    5.71474e-01    5.73105e-01    5.71036e-01    1.42698e-01    1.43076e-01    1.43389e-01    1.42191e-01    2.91358e+00    9.83518e-01    7.28395e-01    5.39826e-01    7.28395e-01    2.45879e-01    1.34956e-01    1.34956e-01    2.45879e-01
    1.30000e+01    1.00000e+00   -1.02638e-03    1.09737e-04    5.14336e+00    2.28601e+00    5.69847e-01    5.71547e-01    5.73363e-01    5.71154e-01    1.42694e-01    1.43114e-01    1.43489e-01    1.42147e-01    2.91358e+00    9.83518e-01    7.28395e-01    5.39826e-01    7.28395e-01    2.45879e-01    1.34956e-01    1.34956e-01    2.45879e-01
    1.40000e+01    1.00000e+00   -1.12490e-03    9.47233e-05    5.14413e+00    2.28634e+00    5.69749e-01    5.71622e-01    5.73604e-01    5.71282e-01    1.42692e-01    1.43150e-01    1.43584e-01    1.42110e-01    2.91358e+00    9.83518e-01    7.28395e-01    5.39826e-01    7.28395e-01    2.45879e-01    1.34956e-01    1.34956e-01    2.45879e-01
    1.50000e+01    1.00000e+00   -1.21003e-03    7.67528e-05    5.14491e+00    2.28667e+00    5.69672e-01    5.71698e-01    5.73819e-01    5.71421e-01    1.42692e-01    1.43182e-01    1.43672e-01    1.42084e-01    2.91358e+00    9.83518e-01    7.28395e-01    5.39826e-01    7.28395e-01    2.45879e-01    1.34956e-01    1.34956e-01    2.45879e-01
    1.60000e+01    1.00000e+00   -1.27835e-03    5.64862e-05    5.14571e+00    2.28701e+00    5.69622e-01    5.71774e-01    5.74004e-01    5.71569e-01    1.42695e-01    1.43211e-01    1.43750e-01    1.42070e-01    2.91358e+00    9.83518e-01    7.28395e-01    5.39826e-01    7.28395e-01    2.45879e-01    1.34956e-01    1.34956e-01    2.45879e-01
    1.70000e+01    1.00000e+00   -1.32623e-03    3.42641e-05    5.14651e+00    2.28735e+00    5.69604e-01    5.71851e-01    5.74151e-01    5.71724e-01    1.42702e-01    1.43236e-01    1.43817e-01    1.42071e-01    2.91358e+00    9.83518e-01    7.28395e-01    5.39826e-01    7.28395e-01    2.45879e-01    1.34956e-01    1.34956e-01    2.45879e-01
    1.80000e+01    1.00000e+00   -1.35024e-03    9.71643e-06    5.14731e+00    2.28769e+00    5.69624e-01    5.71927e-01    5.74253e-01    5.71888e-01    1.42713e-01    1.43255e-01    1.43868e-01    1.42088e-01    2.91358e+00    9.83518e-01    7.28395e-01    5.39826e-01    7.28395e-01    2.45879e-01    1.34956e-01    1.34956e-01    2.45879e-01
    1.90000e+01    1.00000e+00   -1.34742e-03   -1.69487e-05    5.14810e+00    2.28803e+00    5.69686e-01    5.72002e-01    5.74306e-01    5.72059e-01    1.42728e-01    1.43268e-01    1.43902e-01    1.42124e-01    2.91358e+00    9.83518e-01    7.28395e-01    5.39826e-01    7.28395e-01    2.45879e-01    1.34956e-01    1.34956e-01    2.45879e-01
    2.00000e+01    1.00000e+00   -1.31537e-03   -4.39609e-05    5.14889e+00    2.28836e+00    5.69795e-01    5.72076e-01    5.74305e-01    5.72229e-01    1.42749e-01    1.43274e-01    1.43917e-01    1.42179e-01    2.91358e+00    9.83518e-01    7.28395e-01    5.39826e-01    7.28395e-01    2.45879e-01    1.34956e-01    1.34956e-01    2.45879e-01
    2.10000e+01    1.00000e+00   -1.25295e-03   -7.12587e-05    5.14965e+00    2.28869e+00    5.69954e-01    5.72148e-01    5.74249e-01    5.72399e-01    1.42775e-01    1.43274e-01    1.43912e-01    1.42253e-01    2.91358e+00    9.83518e-01    7.28395e-01    5.39826e-01    7.28395e-01    2.45879e-01    1.34956e-01    1.34956e-01    2.45879e-01
    2.20000e+01    1.00000e+00   -1.16047e-03   -9.83999e-05    5.15039e+00    2.28900e+00    5.70163e-01    5.72217e-01    5.74140e-01    5.72566e-01    1.42807e-01    1.43267e-01    1.43885e-01    1.42346e-01    2.91358e+00    9.83518e-01    7.28395e-01    5.39826e-01    7.28395e-01    2.45879e-01    1.34956e-01    1.34956e-01    2.45879e-01
    2.30000e+01    1.00000e+00   -1.03966e-03   -1.23193e-04    5.15110e+00    2.28931e+00    5.70419e-01    5.72283e-01    5.73981e-01    5.72722e-01    1.42844e-01    1.43254e-01    1.43839e-01    1.42456e-01    2.91358e+00    9.83518e-01    7.28395e-01    5.39826e-01    7.28395e-01    2.45879e-01    1.34956e-01    1.34956e-01    2.45879e-01
    2.40000e+01    1.00000e+00   -8.94090e-04   -1.44717e-04    5.15177e+00    2.28959e+00    5.70718e-01    5.72346e-01    5.73780e-01    5.72862e-01    1.42886e-01    1.43237e-01    1.43773e-01    1.42580e-01    2.91358e+00    9.83518e-01    7.28395e-01    5.39826e-01    7.28395e-01    2.45879e-01    1.34956e-01    1.34956e-01    2.45879e-01
    2.50000e+01    1.00000e+00   -7.29129e-04   -1.62900e-04    5.15240e+00    2.28986e+00    5.71052e-01    5.72405e-01    5.73548e-01    5.72986e-01    1.42932e-01    1.43215e-01    1.43692e-01    1.42713e-01    2.91358e+00    9.83518e-01    7.28395e-01    5.39826e-01    7.28395e-01    2.45879e-01    1.34956e-01    1.34956e-01    2.45879e-01
    2.60000e+01    1.00000e+00   -5.51537e-04   -1.76087e-04    5.15298e+00    2.29011e+00    5.71410e-01    5.72460e-01    5.73295e-01    5.73088e-01    1.42981e-01    1.43191e-01    1.43599e-01    1.42852e-01    2.91358e+00    9.83518e-01    7.28395e-01    5.39826e-01    7.28395e-01    2.45879e-01    1.34956e-01    1.34956e-01    2.45879e-01
    2.70000e+01    1.00000e+00   -3.69279e-04   -1.83173e-04    5.15351e+00    2.29033e+00    5.71779e-01    5.72511e-01    5.73038e-01    5.73164e-01    1.43031e-01    1.43166e-01    1.43499e-01    1.42990e-01    2.91358e+00    9.83518e-01    7.28395e-01    5.39826e-01    7.28395e-01    2.45879e-01    1.34956e-01    1.34956e-01    2.45879e-01
    2.80000e+01    1.00000e+00   -1.91004e-04   -1.85235e-04    5.15398e+00    2.29054e+00    5.72143e-01    5.72556e-01    5.72790e-01    5.73215e-01    1.43080e-01    1.43143e-01    1.43398e-01    1.43123e-01    2.91358e+00    9.83518e-01    7.28395e-01    5.39826e-01    7.28395e-01    2.45879e-01    1.34956e-01    1.34956e-01    2.45879e-01
    2.90000e+01    1.00000e+00   -2.53650e-05   -1.81325e-04    5.15440e+00    2.29072e+00    5.72489e-01    5.72599e-01    5.72567e-01    5.73242e-01    1.43127e-01    1.43123e-01    1.43299e-01    1.43242e-01    2.91358e+00    9.83518e-01    7.28395e-01    5.39826e-01    7.28395e-01    2.45879e-01    1.34956e-01    1.34956e-01    2.45879e-01
    3.00000e+01    1.00000e+00    1.19053e-04   -1.72153e-04    5.15477e+00    2.29087e+00    5.72801e-01    5.72635e-01    5.72383e-01    5.73243e-01    1.43170e-01    1.43108e-01    1.43212e-01    1.43345e-01    2.91358e+00    9.83518e-01    7.28395e-01    5.39826e-01    7.28395e-01    2.45879e-01    1.34956e-01    1.34956e-01    2.45879e-01
    3.10000e+01    1.00000e+00    2.34974e-04   -1.58153e-04    5.15509e+00    2.29101e+00    5.73064e-01    5.72669e-01    5.72249e-01    5.73224e-01    1.43206e-01    1.43099e-01    1.43138e-01    1.43426e-01    2.91358e+00    9.83518e-01    7.28395e-01    5.39826e-01    7.28395e-01    2.45879e-01    1.34956e-01    1.34956e-01    2.45879e-01
    3.20000e+01    1.00000e+00    3.17709e-04   -1.42554e-04    5.15535e+00    2.29113e+00    5.73269e-01    5.72694e-01    5.72168e-01    5.73191e-01    1.43237e-01    1.43096e-01    1.43087e-01    1.43483e-01    2.91358e+00    9.83518e-01    7.28395e-01    5.39826e-01    7.28395e-01    2.45879e-01    1.34956e-01    1.34956e-01    2.45879e-01
    3.30000e+01    1.00000e+00    3.63851e-04   -1.22480e-04    5.15557e+00    2.29122e+00    5.73409e-01    5.72726e-01    5.72152e-01    5.73149e-01    1.43255e-01    1.43098e-01    1.43050e-01    1.43512e-01    2.91358e+00    9.83518e-01    7.28395e-01    5.39826e-01    7.28395e-01    2.45879e-01    1.34956e-01    1.34956e-01    2.45879e-01
    3.40000e+01    1.00000e+00    3.68409e-04   -1.01526e-04    5.15575e+00    2.29130e+00    5.73479e-01    5.72736e-01    5.72207e-01    5.73084e-01    1.43268e-01    1.43116e-01    1.43043e-01    1.43517e-01    2.91358e+00    9.83518e-01    7.28395e-01    5.39826e-01    7.28395e-01    2.45879e-01    1.34956e-01    1.34956e-01    2.45879e-01
    3.50000e+01    1.00000e+00    3.37682e-04   -8.48574e-05    5.15592e+00    2.29137e+00    5.73468e-01    5.72770e-01    5.72304e-01    5.73050e-01    1.43269e-01    1.43125e-01    1.43060e-01    1.43492e-01    2.91358e+00    9.83518e-01    7.28395e-01    5.39826e-01    7.28395e-01    2.45879e-01    1.34956e-01    1.34956e-01    2.45879e-01
    3.60000e+01    1.00000e+00    2.76528e-04   -8.47223e-05    5.15602e+00    2.29142e+00    5.73410e-01    5.72740e-01    5.72453e-01    5.73025e-01    1.43265e-01    1.43146e-01    1.43106e-01    1.43456e-01    2.91358e+00    9.83518e-01    7.28395e-01    5.39826e-01    7.28395e-01    2.45879e-01    1.34956e-01    1.34956e-01    2.45879e-01
    3.70000e+01    1.00000e+00    2.09644e-04   -6.16388e-05    5.15609e+00    2.29145e+00    5.73284e-01    5.72807e-01    5.72550e-01    5.73001e-01    1.43266e-01    1.43170e-01    1.43155e-01    1.43405e-01    2.91358e+00    9.83518e-01    7.28395e-01    5.39826e-01    7.28395e-01    2.45879e-01    1.34956e-01    1.34956e-01    2.45879e-01
    3.80000e+01    1.00000e+00    1.28073e-04   -8.34812e-05    5.15614e+00    2.29148e+00    5.73187e-01    5.72765e-01    5.72761e-01    5.73025e-01    1.43243e-01    1.43135e-01    1.43211e-01    1.43337e-01    2.91358e+00    9.83518e-01    7.28395e-01    5.39826e-01    7.28395e-01    2.45879e-01    1.34956e-01    1.34956e-01    2.45879e-01
    3.90000e+01    1.00000e+00    0.00000e+00    0.00000e+00    5.15621e+00    2.29151e+00    5.73017e-01    5.72782e-01    5.73017e-01    5.72905e-01    1.43216e-01    1.43273e-01    1.43216e-01    1.43273e-01    2.91358e+00    9.83518e-01    7.28395e-01    5.39826e-01    7.28395e-01    2.45879e-01    1.34956e-01    1.34956e-01    2.45879e-01
    0.00000e+00    2.00000e+00    0.00000e+00    0.00000e+00    5.13779e+00    2.28361e+00    5.70817e-01    5.70807e-01    5.70817e-01    5.70943e-01    1.42662e-01    1.42739e-01    1.42662e-01    1.42739e-01    2.91358e+00    9.83518e-01    7.28395e-01    5.39826e-01    7.28395e-01    2.45879e-01    1.34956e-01    1.34956e-01    2.45879e-01
    1.00000e+00    2.00000e+00    7.99461e-05    1.64417e-04    5.13790e+00    2.28366e+00    5.70972e-01    5.71185e-01    5.70718e-01    5.70604e-01    1.42771e-01    1.42746e-01    1.42560e-01    1.42692e-01    2.91358e+00    9.83518e-01    7.28395e-01    5.39826e-01    7.28395e-01    2.45879e-01    1.34956e-01    1.34956e-01    2.45879e-01
    2.00000e+00    2.00000e+00    9.26735e-05    2.63623e-04    5.13798e+00    2.28369e+00    5.71129e-01    5.71242e-01    5.70802e-01    5.70326e-01    1.42834e-01    1.42783e-01    1.42541e-01    1.42638e-01    2.91358e+00    9.83518e-01    7.28395e-01    5.39826e-01    7.28395e-01    2.45879e-01    1.34956e-01    1.34956e-01    2.45879e-01
    3.00000e+00    2.00000e+00    1.95676e-05    3.26589e-04    5.13814e+00    2.28376e+00    5.71067e-01    5.71300e-01    5.71006e-01    5.70178e-01    1.42875e-01    1.42821e-01    1.42577e-01    1.42562e-01    2.91358e+00    9.83518e-01    7.28395e-01    5.39826e-01    7.28395e-01    2.45879e-01    1.34956e-01    1.34956e-01    2.45879e-01
    4.00000e+00    2.00000e+00   -1.06657e-04    3.72045e-04    5.13842e+00    2.28388e+00    5.70933e-01    5.71363e-01    5.71293e-01    5.70088e-01    1.42871e-01    1.42880e-01    1.42647e-01    1.42468e-01    2.91358e+00    9.83518e-01    7.28395e-01    5.39826e-01    7.28395e-01    2.45879e-01    1.34956e-01    1.34956e-01    2.45879e-01
    5.00000e+00    2.00000e+00   -2.80182e-04    3.97030e-04    5.13873e+00    2.28401e+00    5.70715e-01    5.71400e-01    5.71667e-01    5.70034e-01    1.42834e-01    1.42953e-01    1.42741e-01    1.42372e-01    2.91358e+00    9.83518e-01    7.28395e-01    5.39826e-01    7.28395e-01    2.45879e-01    1.34956e-01    1.34956e-01    2.45879e-01