TITLE="LBM output"
VARIABLES = "X", "Y", "U","V","density","f0","f1","f2","f3","f4","f5","f6","f7","f8","feq0","feq1","feq2","feq3","feq4","feq5","feq6","feq7","feq8",
ZONE T = "fluid", I=40, J=40, F=POINT
SOLUTIONTIME=912
    0.00000e+00    0.00000e+00    0.00000e+00    0.00000e+00    5.11810e+00    2.27436e+00    5.68690e-01    5.68686e-01    5.68690e-01    5.68686e-01    1.42350e-01    1.42147e-01    1.42350e-01    1.42147e-01    2.88674e+00    9.74456e-01    7.21684e-01    5.34852e-01    7.21684e-01    2.43614e-01    1.33713e-01    1.33713e-01    2.43614e-01
    1.00000e+00    0.00000e+00    0.00000e+00    0.00000e+00    5.11939e+00    2.27495e+00    5.68504e-01    5.69068e-01    5.68794e-01    5.69068e-01    1.42314e-01    1.42189e-01    1.42314e-01    1.42189e-01    2.88674e+00    9.74456e-01    7.21684e-01    5.34852e-01    7.21684e-01    2.43614e-01    1.33713e-01    1.33713e-01    2.43614e-01
    2.00000e+00    0.00000e+00    0.00000e+00    0.00000e+00    5.11919e+00    2.27487e+00    5.68933e-01    5.68903e-01    5.68623e-01    5.68903e-01    1.42343e-01    1.42136e-01    1.42343e-01    1.42136e-01    2.88674e+00    9.74456e-01    7.21684e-01    5.34852e-01    7.21684e-01    2.43614e-01    1.33713e-01    1.33713e-01    2.43614e-01
    3.00000e+00    0.00000e+00    0.00000e+00    0.00000e+00    5.11851e+00    2.27457e+00    5.68542e-01    5.68968e-01    5.68664e-01    5.68968e-01    1.42363e-01    1.42038e-01    1.42363e-01    1.42038e-01    2.88674e+00    9.74456e-01    7.21684e-01    5.34852e-01    7.21684e-01    2.43614e-01    1.33713e-01    1.33713e-01    2.43614e-01
    4.00000e+00    0.00000e+00    0.00000e+00    0.00000e+00    5.11822e+00    2.27445e+00    5.68726e-01    5.68825e-01    5.68547e-01    5.68825e-01    1.42388e-01    1.42037e-01    1.42388e-01    1.42037e-01    2.88674e+00    9.74456e-01    7.21684e-01    5.34852e-01    7.21684e-01    2.43614e-01    1.33713e-01    1.33713e-01    2.43614e-01
    5.00000e+00    0.00000e+00    0.00000e+00    0.00000e+00    5.11741e+00    2.27410e+00    5.68526e-01    5.68754e-01    5.68493e-01    5.68754e-01    1.42440e-01    1.41952e-01    1.42440e-01    1.41952e-01    2.88674e+00    9.74456e-01    7.21684e-01    5.34852e-01    7.21684e-01    2.43614e-01    1.33713e-01    1.33713e-01    2.43614e-01
    6.00000e+00    0.00000e+00    0.00000e+00    0.00000e+00    5.11676e+00    2.27382e+00    5.68525e-01    5.68656e-01    5.68402e-01    5.68656e-01    1.42480e-01    1.41870e-01    1.42480e-01    1.41870e-01    2.88674e+00    9.74456e-01    7.21684e-01    5.34852e-01    7.21684e-01    2.43614e-01    1.33713e-01    1.33713e-01    2.43614e-01
    7.00000e+00    0.00000e+00    0.00000e+00    0.00000e+00    5.11595e+00    2.27347e+00    5.68402e-01    5.68572e-01    5.68321e-01    5.68572e-01    1.42521e-01    1.41783e-01    1.42521e-01    1.41783e-01    2.88674e+00    9.74456e-01    7.21684e-01    5.34852e-01    7.21684e-01    2.43614e-01    1.33713e-01    1.33713e-01    2.43614e-01
    8.00000e+00    0.00000e+00    0.00000e+00    0.00000e+00    5.11515e+00    2.27313e+00    5.68344e-01    5.68469e-01    5.68230e-01    5.68469e-01    1.42565e-01    1.41688e-01    1.42565e-01    1.41688e-01    2.88674e+00    9.74456e-01    7.21684e-01    5.34852e-01    7.21684e-01    2.43614e-01    1.33713e-01    1.33713e-01    2.43614e-01
    9.00000e+00    0.00000e+00    0.00000e+00    0.00000e+00    5.11432e+00    2.27278e+00    5.68239e-01    5.68370e-01    5.68146e-01    5.68370e-01    1.42607e-01    1.41601e-01    1.42607e-01    1.41601e-01    2.88674e+00    9.74456e-01    7.21684e-01    5.34852e-01    7.21684e-01    2.43614e-01    1.33713e-01    1.33713e-01    2.43614e-01
    1.00000e+01    0.00000e+00    0.00000e+00    0.00000e+00    5.11352e+00    2.27244e+00    5.68164e-01    5.68269e-01    5.68061e-01    5.68269e-01    1.42648e-01    1.41510e-01    1.42648e-01    1.41510e-01    2.88674e+00    9.74456e-01    7.21684e-01    5.34852e-01    7.21684e-01    2.43614e-01    1.33713e-01    1.33713e-01    2.43614e-01
    1.10000e+01    0.00000e+00    0.00000e+00    0.00000e+00    5.11274e+00    2.27212e+00    5.68074e-01    5.68173e-01    5.67982e-01    5.68173e-01    1.42686e-01    1.41423e-01    1.42686e-01    1.41423e-01    2.88674e+00    9.74456e-01    7.21684e-01    5.34852e-01    7.21684e-01    2.43614e-01    1.33713e-01    1.33713e-01    2.43614e-01
    1.20000e+01    0.00000e+00    0.00000e+00    0.00000e+00    5.11200e+00    2.27181e+00    5.67998e-01    5.68079e-01    5.67908e-01    5.68079e-01    1.42722e-01    1.41340e-01    1.42722e-01    1.41340e-01    2.88674e+00    9.74456e-01    7.21684e-01    5.34852e-01    7.21684e-01    2.43614e-01    1.33713e-01    1.33713e-01    2.43614e-01
    1.30000e+01    0.00000e+00    0.00000e+00    0.00000e+00    5.11131e+00    2.27153e+00    5.67921e-01    5.67992e-01    5.67841e-01    5.67992e-01    1.42754e-01    1.41264e-01    1.42754e-01    1.41264e-01    2.88674e+00    9.74456e-01    7.21684e-01    5.34852e-01    7.21684e-01    2.43614e-01    1.33713e-01    1.33713e-01    2.43614e-01
    1.40000e+01    0.00000e+00    0.00000e+00    0.00000e+00    5.11068e+00    2.27127e+00    5.67855e-01    5.67911e-01    5.67780e-01    5.67911e-01    1.42783e-01    1.41193e-01    1.42783e-01    1.41193e-01    2.88674e+00    9.74456e-01    7.21684e-01    5.34852e-01    7.21684e-01    2.43614e-01    1.33713e-01    1.33713e-01    2.43614e-01
    1.50000e+01    0.00000e+00    0.00000e+00    0.00000e+00    5.11010e+00    2.27104e+00    5.67793e-01    5.67836e-01    5.67726e-01    5.67836e-01    1.42806e-01    1.41131e-01    1.42806e-01    1.41131e-01    2.88674e+00    9.74456e-01    7.21684e-01    5.34852e-01    7.21684e-01    2.43614e-01    1.33713e-01    1.33713e-01    2.43614e-01
    1.60000e+01    0.00000e+00    0.00000e+00    0.00000e+00    5.10959e+00    2.27083e+00    5.67738e-01    5.67769e-01    5.67679e-01    5.67769e-01    1.42823e-01    1.41077e-01    1.42823e-01    1.41077e-01    2.88674e+00    9.74456e-01    7.21684e-01    5.34852e-01    7.21684e-01    2.43614e-01    1.33713e-01    1.33713e-01    2.43614e-01
    1.70000e+01    0.00000e+00    0.00000e+00    0.00000e+00    5.10913e+00    2.27065e+00    5.67690e-01    5.67709e-01    5.67637e-01    5.67709e-01    1.42834e-01    1.41033e-01    1.42834e-01    1.41033e-01    2.88674e+00    9.74456e-01    7.21684e-01    5.34852e-01    7.21684e-01    2.43614e-01    1.33713e-01    1.33713e-01    2.43614e-01
    1.80000e+01    0.00000e+00    0.00000e+00    0.00000e+00    5.10873e+00    2.27050e+00    5.67648e-01    5.67654e-01    5.67601e-01    5.67654e-01    1.42837e-01    1.40999e-01    1.42837e-01    1.40999e-01    2.88674e+00    9.74456e-01    7.21684e-01    5.34852e-01    7.21684e-01    2.43614e-01    1.33713e-01    1.33713e-01    2.43614e-01
    1.90000e+01    0.00000e+00    0.00000e+00    0.00000e+00    5.10836e+00    2.27036e+00    5.67610e-01    5.67606e-01    5.67569e-01    5.67606e-01    1.42831e-01    1.40976e-01    1.42831e-01    1.40976e-01    2.88674e+00    9.74456e-01    7.21684e-01    5.34852e-01    7.21684e-01    2.43614e-01    1.33713e-01    1.33713e-01    2.43614e-01
    2.00000e+01    0.00000e+00    0.00000e+00    0.00000e+00    5.10804e+00    2.27024e+00    5.67578e-01    5.67562e-01    5.67541e-01    5.67562e-01    1.42817e-01    1.40965e-01    1.42817e-01    1.40965e-01    2.88674e+00    9.74456e-01    7.21684e-01    5.34852e-01    7.21684e-01    2.43614e-01    1.33713e-01    1.33713e-01    2.43614e-01
    2.10000e+01    0.00000e+00    0.00000e+00    0.00000e+00    5.10775e+00    2.27013e+00    5.67549e-01    5.67522e-01    5.67515e-01    5.67522e-01    1.42794e-01    1.40964e-01    1.42794e-01    1.40964e-01    2.88674e+00    9.74456e-01    7.21684e-01    5.34852e-01    7.21684e-01    2.43614e-01    1.33713e-01    1.33713e-01    2.43614e-01
    2.20000e+01    0.00000e+00    0.00000e+00    0.00000e+00    5.10749e+00    2.27003e+00    5.67523e-01    5.67486e-01    5.67492e-01    5.67486e-01    1.42761e-01    1.40975e-01    1.42761e-01    1.40975e-01    2.88674e+00    9.74456e-01    7.21684e-01    5.34852e-01    7.21684e-01    2.43614e-01    1.33713e-01    1.33713e-01    2.43614e-01
    2.30000e+01    0.00000e+00    0.00000e+00    0.00000e+00    5.10724e+00    2.26994e+00    5.67499e-01    5.67452e-01    5.67469e-01    5.67452e-01    1.42718e-01    1.40997e-01    1.42718e-01    1.40997e-01    2.88674e+00    9.74456e-01    7.21684e-01    5.34852e-01    7.21684e-01    2.43614e-01    1.33713e-01    1.33713e-01    2.43614e-01
    2.40000e+01    0.00000e+00    0.00000e+00    0.00000e+00    5.10700e+00    2.26985e+00    5.67476e-01    5.67420e-01    5.67448e-01    5.67420e-01    1.42666e-01    1.41030e-01    1.42666e-01    1.41030e-01    2.88674e+00    9.74456e-01    7.21684e-01    5.34852e-01    7.21684e-01    2.43614e-01    1.33713e-01    1.33713e-01    2.43614e-01
    2.50000e+01    0.00000e+00    0.00000e+00    0.00000e+00    5.10678e+00    2.26976e+00    5.67455e-01    5.67390e-01    5.67427e-01    5.67390e-01    1.42606e-01    1.41071e-01    1.42606e-01    1.41071e-01    2.88674e+00    9.74456e-01    7.21684e-01    5.34852e-01    7.21684e-01    2.43614e-01    1.33713e-01    1.33713e-01    2.43614e-01
    2.60000e+01    0.00000e+00    0.00000e+00    0.00000e+00    5.10656e+00    2.26968e+00    5.67433e-01    5.67361e-01    5.67408e-01    5.67361e-01    1.42538e-01    1.41122e-01    1.42538e-01    1.41122e-01    2.88674e+00    9.74456e-01    7.21684e-01    5.34852e-01    7.21684e-01    2.43614e-01    1.33713e-01    1.33713e-01    2.43614e-01
    2.70000e+01    0.00000e+00    0.00000e+00    0.00000e+00    5.10635e+00    2.26960e+00    5.67413e-01    5.67333e-01    5.67387e-01    5.67333e-01    1.42464e-01    1.41179e-01    1.42464e-01    1.41179e-01    2.88674e+00    9.74456e-01    7.21684e-01    5.34852e-01    7.21684e-01    2.43614e-01    1.33713e-01    1.33713e-01    2.43614e-01
    2.80000e+01    0.00000e+00    0.00000e+00    0.00000e+00    5.10616e+00    2.26952e+00    5.67393e-01    5.67306e-01    5.67370e-01    5.67306e-01    1.42387e-01    1.41241e-01    1.42387e-01    1.41241e-01    2.88674e+00    9.74456e-01    7.21684e-01    5.34852e-01    7.21684e-01    2.43614e-01    1.33713e-01    1.33713e-01    2.43614e-01
    2.90000e+01    0.00000e+00    0.00000e+00    0.00000e+00    5.10597e+00    2.26945e+00    5.67374e-01    5.67281e-01    5.67350e-01    5.67281e-01    1.42308e-01    1.41307e-01    1.42308e-01    1.41307e-01    2.88674e+00    9.74456e-01    7.21684e-01    5.34852e-01    7.21684e-01    2.43614e-01    1.33713e-01    1.33713e-01    2.43614e-01
    3.00000e+01    0.00000e+00    0.00000e+00    0.00000e+00    5.10580e+00    2.26938e+00    5.67356e-01    5.67256e-01    5.67338e-01    5.67256e-01    1.42228e-01    1.41375e-01    1.42228e-01    1.41375e-01    2.88674e+00    9.74456e-01    7.21684e-01    5.34852e-01    7.21684e-01    2.43614e-01    1.33713e-01    1.33713e-01    2.43614e-01
    3.10000e+01    0.00000e+00    0.00000e+00    0.00000e+00    5.10563e+00    2.26932e+00    5.67340e-01    5.67234e-01    5.67318e-01    5.67234e-01    1.42152e-01    1.41442e-01    1.42152e-01    1.41442e-01    2.88674e+00    9.74456e-01    7.21684e-01    5.34852e-01    7.21684e-01    2.43614e-01    1.33713e-01    1.33713e-01    2.43614e-01
    3.20000e+01    0.00000e+00    0.00000e+00    0.00000e+00    5.10550e+00    2.26927e+00    5.67324e-01    5.67213e-01    5.67314e-01    5.67213e-01    1.42078e-01    1.41506e-01    1.42078e-01    1.41506e-01    2.88674e+00    9.74456e-01    7.21684e-01    5.34852e-01    7.21684e-01    2.43614e-01    1.33713e-01    1.33713e-01    2.43614e-01
    3.30000e+01    0.00000e+00    0.00000e+00    0.00000e+00    5.10537e+00    2.26921e+00    5.67312e-01    5.67198e-01    5.67290e-01    5.67198e-01    1.42012e-01    1.41566e-01    1.42012e-01    1.41566e-01    2.88674e+00    9.74456e-01    7.21684e-01    5.34852e-01    7.21684e-01    2.43614e-01    1.33713e-01    1.33713e-01    2.43614e-01
    3.40000e+01    0.00000e+00    0.00000e+00    0.00000e+00    5.10529e+00    2.26919e+00    5.67298e-01    5.67179e-01    5.67305e-01    5.67179e-01    1.41954e-01    1.41619e-01    1.41954e-01    1.41619e-01    2.88674e+00    9.74456e-01    7.21684e-01    5.34852e-01    7.21684e-01    2.43614e-01    1.33713e-01    1.33713e-01    2.43614e-01
    3.50000e+01    0.00000e+00    0.00000e+00    0.00000e+00    5.10514e+00    2.26913e+00    5.67296e-01    5.67167e-01    5.67251e-01    5.67167e-01    1.41900e-01    1.41669e-01    1.41900e-01    1.41669e-01    2.88674e+00    9.74456e-01    7.21684e-01    5.34852e-01    7.21684e-01    2.43614e-01    1.33713e-01    1.33713e-01    2.43614e-01
    3.60000e+01    0.00000e+00    0.00000e+00    0.00000e+00    5.10521e+00    2.26916e+00    5.67270e-01    5.67129e-01    5.67340e-01    5.67129e-01    1.41890e-01    1.41702e-01    1.41890e-01    1.41702e-01    2.88674e+00    9.74456e-01    7.21684e-01    5.34852e-01    7.21684e-01    2.43614e-01    1.33713e-01    1.33713e-01    2.43614e-01
    3.70000e+01    0.00000e+00    0.00000e+00    0.00000e+00    5.10503e+00    2.26908e+00    5.67305e-01    5.67163e-01    5.67182e-01    5.67163e-01    1.41840e-01    1.41728e-01    1.41840e-01    1.41728e-01    2.88674e+00    9.74456e-01    7.21684e-01    5.34852e-01    7.21684e-01    2.43614e-01    1.33713e-01    1.33713e-01    2.43614e-01
    3.80000e+01    0.00000e+00    0.00000e+00    0.00000e+00    5.10511e+00    2.26912e+00    5.67244e-01    5.67105e-01    5.67404e-01    5.67105e-01    1.41818e-01    1.41747e-01    1.41818e-01    1.41747e-01    2.88674e+00    9.74456e-01    7.21684e-01    5.34852e-01    7.21684e-01    2.43614e-01    1.33713e-01    1.33713e-01    2.43614e-01
    3.90000e+01    0.00000e+00    0.00000e+00    0.00000e+00    5.10584e+00    2.26945e+00    5.67308e-01    5.67310e-01    5.67308e-01    5.67310e-01    1.41841e-01    1.41739e-01    1.41841e-01    1.41739e-01    2.88674e+00    9.74456e-01    7.21684e-01    5.34852e-01    7.21684e-01    2.43614e-01    1.33713e-01    1.33713e-01    2.43614e-01
    0.00000e+00    1.00000e+00    0.00000e+00    0.00000e+00    5.11943e+00    2.27497e+00    5.69066e-01    5.68508e-01    5.69066e-01    5.68809e-01    1.42324e-01    1.42181e-01    1.42324e-01    1.42181e-01    2.88674e+00    9.74456e-01    7.21684e-01    5.34852e-01    7.21684e-01    2.43614e-01    1.33713e-01    1.33713e-01    2.43614e-01
    1.00000e+00    1.00000e+00   -2.71928e-04   -2.31595e-04    5.11921e+00    2.27487e+00    5.68473e-01    5.68466e-01    5.69355e-01    5.69195e-01    1.41980e-01    1.42218e-01    1.42463e-01    1.42191e-01    2.88674e+00    9.74456e-01    7.21684e-01    5.34852e-01    7.21684e-01    2.43614e-01    1.33713e-01    1.33713e-01    2.43614e-01
    2.00000e+00    1.00000e+00   -4.04476e-04   -1.73217e-04    5.11897e+00    2.27477e+00    5.68047e-01    5.68563e-01    5.69465e-01    5.69112e-01    1.42074e-01    1.42265e-01    1.42569e-01    1.42107e-01    2.88674e+00    9.74456e-01    7.21684e-01    5.34852e-01    7.21684e-01    2.43614e-01    1.33713e-01    1.33713e-01    2.43614e-01
    3.00000e+00    1.00000e+00   -5.39781e-04   -1.86960e-04    5.11863e+00    2.27462e+00    5.67924e-01    5.68376e-01    5.69782e-01    5.69000e-01    1.42039e-01    1.42255e-01    1.42658e-01    1.41969e-01    2.88674e+00    9.74456e-01    7.21684e-01    5.34852e-01    7.21684e-01    2.43614e-01    1.33713e-01    1.33713e-01    2.43614e-01
    4.00000e+00    1.00000e+00   -7.46363e-04   -1.35412e-04    5.11812e+00    2.27440e+00    5.67524e-01    5.68438e-01    5.70079e-01    5.68855e-01    1.41987e-01    1.42285e-01    1.42758e-01    1.41791e-01    2.88674e+00    9.74456e-01    7.21684e-01    5.34852e-01    7.21684e-01    2.43614e-01    1.33713e-01    1.33713e-01    2.43614e-01
    5.00000e+00    1.00000e+00   -9.73682e-04   -1.13879e-04    5.11745e+00    2.27411e+00    5.67099e-01    5.68336e-01    5.70435e-01    5.68694e-01    1.41953e-01    1.42321e-01    1.42888e-01    1.41610e-01    2.88674e+00    9.74456e-01    7.21684e-01    5.34852e-01    7.21684e-01    2.43614e-01    1.33713e-01    1.33713e-01    2.43614e-01
    6.00000e+00    1.00000e+00   -1.21859e-03   -1.04726e-04    5.11674e+00    2.27381e+00    5.66602e-01    5.68290e-01    5.70773e-01    5.68609e-01    1.41869e-01    1.42352e-01    1.43010e-01    1.41428e-01    2.88674e+00    9.74456e-01    7.21684e-01    5.34852e-01    7.21684e-01    2.43614e-01    1.33713e-01    1.33713e-01    2.43614e-01
    7.00000e+00    1.00000e+00   -1.46256e-03   -9.38441e-05    5.11597e+00    2.27348e+00    5.66104e-01    5.68202e-01    5.71115e-01    5.68483e-01    1.41806e-01    1.42391e-01    1.43141e-01    1.41255e-01    2.88674e+00    9.74456e-01    7.21684e-01    5.34852e-01    7.21684e-01    2.43614e-01    1.33713e-01    1.33713e-01    2.43614e-01
    8.00000e+00    1.00000e+00   -1.70953e-03   -8.04491e-05    5.11517e+00    2.27313e+00    5.65601e-01    5.68132e-01    5.71454e-01    5.68365e-01    1.41734e-01    1.42421e-01    1.43269e-01    1.41064e-01    2.88674e+00    9.74456e-01    7.21684e-01    5.34852e-01    7.21684e-01    2.43614e-01    1.33713e-01    1.33713e-01    2.43614e-01
    9.00000e+00    1.00000e+00   -1.95451e-03   -7.04303e-05    5.11436e+00    2.27278e+00    5.65091e-01    5.68055e-01    5.71783e-01    5.68254e-01    1.41660e-01    1.42455e-01    1.43393e-01    1.40884e-01    2.88674e+00    9.74456e-01    7.21684e-01    5.34852e-01    7.21684e-01    2.43614e-01    1.33713e-01    1.33713e-01    2.43614e-01
    1.00000e+01    1.00000e+00   -2.19153e-03   -6.00265e-05    5.11356e+00    2.27244e+00    5.64593e-01    5.67984e-01    5.72096e-01    5.68146e-01    1.41588e-01    1.42487e-01    1.43512e-01    1.40707e-01    2.88674e+00    9.74456e-01    7.21684e-01    5.34852e-01    7.21684e-01    2.43614e-01    1.33713e-01    1.33713e-01    2.43614e-01
    1.10000e+01    1.00000e+00   -2.41723e-03   -5.06290e-05    5.11278e+00    2.27211e+00    5.64116e-01    5.67914e-01    5.72391e-01    5.68044e-01    1.41518e-01    1.42518e-01    1.43624e-01    1.40541e-01    2.88674e+00    9.74456e-01    7.21684e-01    5.34852e-01    7.21684e-01    2.43614e-01    1.33713e-01    1.33713e-01    2.43614e-01
    1.20000e+01    1.00000e+00   -2.62897e-03   -4.13967e-05    5.11204e+00    2.27180e+00    5.63664e-01    5.67851e-01    5.72663e-01    5.67951e-01    1.41451e-01    1.42546e-01    1.43728e-01    1.40382e-01    2.88674e+00    9.74456e-01    7.21684e-01    5.34852e-01    7.21684e-01    2.43614e-01    1.33713e-01    1.33713e-01    2.43614e-01
    1.30000e+01    1.00000e+00   -2.82335e-03   -3.33993e-05    5.11135e+00    2.27152e+00    5.63244e-01    5.67793e-01    5.72907e-01    5.67866e-01    1.41389e-01    1.42573e-01    1.43822e-01    1.40238e-01    2.88674e+00    9.74456e-01    7.21684e-01    5.34852e-01    7.21684e-01    2.43614e-01    1.33713e-01    1.33713e-01    2.43614e-01
    1.40000e+01    1.00000e+00   -2.99705e-03   -2.59965e-05    5.11071e+00    2.27125e+00    5.62863e-01    5.67743e-01    5.73120e-01    5.67791e-01    1.41333e-01    1.42595e-01    1.43906e-01    1.40107e-01    2.88674e+00    9.74456e-01    7.21684e-01    5.34852e-01    7.21684e-01    2.43614e-01    1.33713e-01    1.33713e-01    2.43614e-01
    1.50000e+01    1.00000e+00   -3.14714e-03   -2.03923e-05    5.11013e+00    2.27102e+00    5.62526e-01    5.67698e-01    5.73295e-01    5.67730e-01    1.41283e-01    1.42614e-01    1.43976e-01    1.39994e-01    2.88674e+00    9.74456e-01    7.21684e-01    5.34852e-01    7.21684e-01    2.43614e-01    1.33713e-01    1.33713e-01    2.43614e-01
    1.60000e+01    1.00000e+00   -3.27080e-03   -1.62144e-05    5.10961e+00    2.27081e+00    5.62238e-01    5.67660e-01    5.73429e-01    5.67680e-01    1.41239e-01    1.42628e-01    1.44032e-01    1.39899e-01    2.88674e+00    9.74456e-01    7.21684e-01    5.34852e-01    7.21684e-01    2.43614e-01    1.33713e-01    1.33713e-01    2.43614e-01
    1.70000e+01    1.00000e+00   -3.36507e-03   -1.33119e-05    5.10914e+00    2.27062e+00    5.62003e-01    5.67628e-01    5.73516e-01    5.67641e-01    1.41204e-01    1.42637e-01    1.44072e-01    1.39824e-01    2.88674e+00    9.74456e-01    7.21684e-01    5.34852e-01    7.21684e-01    2.43614e-01    1.33713e-01    1.33713e-01    2.43614e-01
    1.80000e+01    1.00000e+00   -3.42739e-03   -1.23678e-05    5.10873e+00    2.27046e+00    5.61826e-01    5.67601e-01    5.73551e-01    5.67614e-01    1.41177e-01    1.42638e-01    1.44094e-01    1.39771e-01    2.88674e+00    9.74456e-01    7.21684e-01    5.34852e-01    7.21684e-01    2.43614e-01    1.33713e-01    1.33713e-01    2.43614e-01
    1.90000e+01    1.00000e+00   -3.45554e-03   -1.35078e-05    5.10836e+00    2.27032e+00    5.61710e-01    5.67577e-01    5.73530e-01    5.67600e-01    1.41157e-01    1.42633e-01    1.44096e-01    1.39740e-01    2.88674e+00    9.74456e-01    7.21684e-01    5.34852e-01    7.21684e-01    2.43614e-01    1.33713e-01    1.33713e-01    2.43614e-01
    2.00000e+01    1.00000e+00   -3.44760e-03   -1.55168e-05    5.10803e+00    2.27019e+00    5.61657e-01    5.67558e-01    5.73449e-01    5.67592e-01    1.41147e-01    1.42621e-01    1.44079e-01    1.39734e-01    2.88674e+00    9.74456e-01    7.21684e-01    5.34852e-01    7.21684e-01    2.43614e-01    1.33713e-01    1.33713e-01    2.43614e-01
    2.10000e+01    1.00000e+00   -3.40237e-03   -1.88347e-05    5.10772e+00    2.27008e+00    5.61670e-01    5.67541e-01    5.73306e-01    5.67592e-01    1.41145e-01    1.42601e-01    1.44039e-01    1.39753e-01    2.88674e+00    9.74456e-01    7.21684e-01    5.34852e-01    7.21684e-01    2.43614e-01    1.33713e-01    1.33713e-01    2.43614e-01
    2.20000e+01    1.00000e+00   -3.31948e-03   -2.36229e-05    5.10745e+00    2.26998e+00    5.61749e-01    5.67525e-01    5.73101e-01    5.67599e-01    1.41152e-01    1.42573e-01    1.43976e-01    1.39795e-01    2.88674e+00    9.74456e-01    7.21684e-01    5.34852e-01    7.21684e-01    2.43614e-01    1.33713e-01    1.33713e-01    2.43614e-01
    2.30000e+01    1.00000e+00   -3.19936e-03   -2.83770e-05    5.10719e+00    2.26988e+00    5.61895e-01    5.67511e-01    5.72835e-01    5.67607e-01    1.41168e-01    1.42537e-01    1.43892e-01    1.39862e-01    2.88674e+00    9.74456e-01    7.21684e-01    5.34852e-01    7.21684e-01    2.43614e-01    1.33713e-01    1.33713e-01    2.43614e-01
    2.40000e+01    1.00000e+00   -3.04361e-03   -3.25459e-05    5.10695e+00    2.26980e+00    5.62104e-01    5.67498e-01    5.72511e-01    5.67615e-01    1.41192e-01    1.42494e-01    1.43785e-01    1.39951e-01    2.88674e+00    9.74456e-01    7.21684e-01    5.34852e-01    7.21684e-01    2.43614e-01    1.33713e-01    1.33713e-01    2.43614e-01
    2.50000e+01    1.00000e+00   -2.85514e-03   -3.66373e-05    5.10671e+00    2.26971e+00    5.62373e-01    5.67484e-01    5.72136e-01    5.67621e-01    1.41224e-01    1.42445e-01    1.43658e-01    1.40061e-01    2.88674e+00    9.74456e-01    7.21684e-01    5.34852e-01    7.21684e-01    2.43614e-01    1.33713e-01    1.33713e-01    2.43614e-01
    2.60000e+01    1.00000e+00   -2.63791e-03   -3.91702e-05    5.10649e+00    2.26963e+00    5.62697e-01    5.67471e-01    5.71716e-01    5.67623e-01    1.41263e-01    1.42390e-01    1.43512e-01    1.40188e-01    2.88674e+00    9.74456e-01    7.21684e-01    5.34852e-01    7.21684e-01    2.43614e-01    1.33713e-01    1.33713e-01    2.43614e-01
    2.70000e+01    1.00000e+00   -2.39707e-03   -3.93360e-05    5.10628e+00    2.26956e+00    5.63066e-01    5.67458e-01    5.71262e-01    5.67616e-01    1.41308e-01    1.42332e-01    1.43352e-01    1.40331e-01    2.88674e+00    9.74456e-01    7.21684e-01    5.34852e-01    7.21684e-01    2.43614e-01    1.33713e-01    1.33713e-01    2.43614e-01
    2.80000e+01    1.00000e+00   -2.13891e-03   -3.71931e-05    5.10608e+00    2.26948e+00    5.63473e-01    5.67446e-01    5.70786e-01    5.67600e-01    1.41358e-01    1.42271e-01    1.43180e-01    1.40484e-01    2.88674e+00    9.74456e-01    7.21684e-01    5.34852e-01    7.21684e-01    2.43614e-01    1.33713e-01    1.33713e-01    2.43614e-01
    2.90000e+01    1.00000e+00   -1.87053e-03   -3.27676e-05    5.10589e+00    2.26941e+00    5.63906e-01    5.67433e-01    5.70301e-01    5.67575e-01    1.41411e-01    1.42209e-01    1.43001e-01    1.40644e-01    2.88674e+00    9.74456e-01    7.21684e-01    5.34852e-01    7.21684e-01    2.43614e-01    1.33713e-01    1.33713e-01    2.43614e-01
    3.00000e+01    1.00000e+00   -1.59918e-03   -2.47617e-05    5.10572e+00    2.26935e+00    5.64351e-01    5.67422e-01    5.69820e-01    5.67539e-01    1.41467e-01    1.42148e-01    1.42820e-01    1.40805e-01    2.88674e+00    9.74456e-01    7.21684e-01    5.34852e-01    7.21684e-01    2.43614e-01    1.33713e-01    1.33713e-01    2.43614e-01
    3.10000e+01    1.00000e+00   -1.33241e-03   -1.39775e-05    5.10557e+00    2.26929e+00    5.64799e-01    5.67411e-01    5.69355e-01    5.67492e-01    1.41523e-01    1.42090e-01    1.42642e-01    1.40962e-01    2.88674e+00    9.74456e-01    7.21684e-01    5.34852e-01    7.21684e-01    2.43614e-01    1.33713e-01    1.33713e-01    2.43614e-01
    3.20000e+01    1.00000e+00   -1.07845e-03    3.10481e-07    5.10543e+00    2.26924e+00    5.65234e-01    5.67404e-01    5.68924e-01    5.67435e-01    1.41577e-01    1.42037e-01    1.42468e-01    1.41112e-01    2.88674e+00    9.74456e-01    7.21684e-01    5.34852e-01    7.21684e-01    2.43614e-01    1.33713e-01    1.33713e-01    2.43614e-01
    3.30000e+01    1.00000e+00   -8.44328e-04    1.61421e-05    5.10532e+00    2.26920e+00    5.65644e-01    5.67393e-01    5.68532e-01    5.67367e-01    1.41630e-01    1.41991e-01    1.42313e-01    1.41251e-01    2.88674e+00    9.74456e-01    7.21684e-01    5.34852e-01    7.21684e-01    2.43614e-01    1.33713e-01    1.33713e-01    2.43614e-01
    3.40000e+01    1.00000e+00   -6.32598e-04    3.23747e-05    5.10523e+00    2.26916e+00    5.66017e-01    5.67394e-01    5.68183e-01    5.67309e-01    1.41677e-01    1.41943e-01    1.42169e-01    1.41371e-01    2.88674e+00    9.74456e-01    7.21684e-01    5.34852e-01    7.21684e-01    2.43614e-01    1.33713e-01    1.33713e-01    2.43614e-01
    3.50000e+01    1.00000e+00   -4.52113e-04    5.42771e-05    5.10514e+00    2.26913e+00    5.66355e-01    5.67376e-01    5.67903e-01    5.67219e-01    1.41720e-01    1.41920e-01    1.42040e-01    1.41479e-01    2.88674e+00    9.74456e-01    7.21684e-01    5.34852e-01    7.21684e-01    2.43614e-01    1.33713e-01    1.33713e-01    2.43614e-01
    3.60000e+01    1.00000e+00   -3.03172e-04    8.61367e-05    5.10510e+00    2.26911e+00    5.66627e-01    5.67419e-01    5.67669e-01    5.67136e-01    1.41757e-01    1.41890e-01    1.41931e-01    1.41559e-01    2.88674e+00    9.74456e-01    7.21684e-01    5.34852e-01    7.21684e-01    2.43614e-01    1.33713e-01    1.33713e-01    2.43614e-01
    3.70000e+01    1.00000e+00   -2.08239e-04    9.47668e-05    5.10510e+00    2.26911e+00    5.66863e-01    5.67358e-01    5.67594e-01    5.67060e-01    1.41770e-01    1.41878e-01    1.41843e-01    1.41619e-01    2.88674e+00    9.74456e-01    7.21684e-01    5.34852e-01    7.21684e-01    2.43614e-01    1.33713e-01    1.33713e-01    2.43614e-01
    3.80000e+01    1.00000e+00   -1.35080e-04    1.29035e-04    5.10512e+00    2.26913e+00    5.66971e-01    5.67418e-01    5.67407e-01    5.67008e-01    1.41800e-01    1.41921e-01    1.41803e-01    1.41670e-01    2.88674e+00    9.74456e-01    7.21684e-01    5.34852e-01    7.21684e-01    2.43614e-01    1.33713e-01    1.33713e-01    2.43614e-01
    3.90000e+01    1.00000e+00    0.00000e+00    0.00000e+00    5.10510e+00    2.26912e+00    5.67116e-01    5.67403e-01    5.67116e-01    5.67239e-01    1.41822e-01    1.41733e-01    1.41822e-01    1.41733e-01    2.88674e+00    9.74456e-01    7.21684e-01    5.34852e-01    7.21684e-01    2.43614e-01    1.33713e-01    1.33713e-01    2.43614e-01
    0.00000e+00    2.00000e+00    0.00000e+00    0.00000e+00    5.11939e+00    2.27496e+00    5.68936e-01    5.68937e-01    5.68936e-01    5.68655e-01    1.42305e-01    1.42179e-01    1.42305e-01    1.42179e-01    2.88674e+00    9.74456e-01    7.21684e-01    5.34852e-01    7.21684e-01    2.43614e-01    1.33713e-01    1.33713e-01    2.43614e-01
    1.00000e+00    2.00000e+00   -2.76681e-04   -2.18689e-04    5.11909e+00    2.27482e+00    5.68576e-01    5.68184e-01    5.69504e-01    5.68965e-01    1.42069e-01    1.42282e-01    1.42482e-01    1.42207e-01    2.88674e+00    9.74456e-01    7.21684e-01    5.34852e-01    7.21684e-01    2.43614e-01    1.33713e-01    1.33713e-01    2.43614e-01
    2.00000e+00    2.00000e+00   -5.97289e-04   -2.16364e-04    5.11888e+00    2.27473e+00    5.67933e-01    5.68243e-01    5.69998e-01    5.69005e-01    1.41940e-01    1.42371e-01    1.42610e-01    1.42048e-01    2.88674e+00    9.74456e-01    7.21684e-01    5.34852e-01    7.21684e-01    2.43614e-01    1.33713e-01    1.33713e-01    2.43614e-01
    3.00000e+00    2.00000e+00   -9.14873e-04   -1.53526e-04    5.11852e+00    2.27458e+00    5.67408e-01    5.68287e-01    5.70536e-01    5.68810e-01    1.41794e-01    1.42525e-01    1.42703e-01    1.41879e-01    2.88674e+00    9.74456e-01    7.21684e-01    5.34852e-01    7.21684e-01    2.43614e-01    1.33713e-01    1.33713e-01    2.43614e-01
    4.00000e+00    2.00000e+00   -1.27949e-03   -8.20009e-05    5.11794e+00    2.27432e+00    5.66768e-01    5.68298e-01    5.71145e-01    5.68573e-01    1.41686e-01    1.42659e-01    1.42844e-01    1.41645e-01    2.88674e+00    9.74456e-01    7.21684e-01    5.34852e-01    7.21684e-01    2.43614e-01    1.33713e-01    1.33713e-01    2.43614e-01
    5.00000e+00    2.00000e+00   -1.66658e-03   -2.22092e-05    5.11736e+00    2.27407e+00    5.66036e-01    5.68316e-01    5.71751e-01    5.68399e-01    1.41582e-01    1.42797e-01    1.43005e-01    1.41405e-01    2.88674e+00    9.74456e-01    7.21684e-01    5.34852e-01    7.21684e-01    2.43614e-01    1.33713e-01    1.33713e-01    2.43614e-01