TITLE="LBM output"
VARIABLES = "X", "Y", "U","V","density","f0","f1","f2","f3","f4","f5","f6","f7","f8","feq0","feq1","feq2","feq3","feq4","feq5","feq6","feq7","feq8",
ZONE T = "fluid", I=40, J=40, F=POINT
SOLUTIONTIME=507
    0.00000e+00    0.00000e+00    0.00000e+00    0.00000e+00    5.07511e+00    2.25568e+00    5.63891e-01    5.63888e-01    5.63891e-01    5.63888e-01    1.40955e-01    1.40980e-01    1.40955e-01    1.40980e-01    2.85256e+00    9.62920e-01    7.13140e-01    5.28520e-01    7.13140e-01    2.40730e-01    1.32130e-01    1.32130e-01    2.40730e-01
    1.00000e+00    0.00000e+00    0.00000e+00    0.00000e+00    5.07451e+00    2.25544e+00    5.63934e-01    5.63815e-01    5.63816e-01    5.63815e-01    1.40877e-01    1.40968e-01    1.40877e-01    1.40968e-01    2.85256e+00    9.62920e-01    7.13140e-01    5.28520e-01    7.13140e-01    2.40730e-01    1.32130e-01    1.32130e-01    2.40730e-01
    2.00000e+00    0.00000e+00    0.00000e+00    0.00000e+00    5.07383e+00    2.25511e+00    5.63826e-01    5.63729e-01    5.63749e-01    5.63729e-01    1.40875e-01    1.40968e-01    1.40875e-01    1.40968e-01    2.85256e+00    9.62920e-01    7.13140e-01    5.28520e-01    7.13140e-01    2.40730e-01    1.32130e-01    1.32130e-01    2.40730e-01
    3.00000e+00    0.00000e+00    0.00000e+00    0.00000e+00    5.07350e+00    2.25492e+00    5.63709e-01    5.63782e-01    5.63704e-01    5.63782e-01    1.40838e-01    1.40964e-01    1.40838e-01    1.40964e-01    2.85256e+00    9.62920e-01    7.13140e-01    5.28520e-01    7.13140e-01    2.40730e-01    1.32130e-01    1.32130e-01    2.40730e-01
    4.00000e+00    0.00000e+00    0.00000e+00    0.00000e+00    5.07274e+00    2.25455e+00    5.63755e-01    5.63643e-01    5.63569e-01    5.63643e-01    1.40832e-01    1.40962e-01    1.40832e-01    1.40962e-01    2.85256e+00    9.62920e-01    7.13140e-01    5.28520e-01    7.13140e-01    2.40730e-01    1.32130e-01    1.32130e-01    2.40730e-01
    5.00000e+00    0.00000e+00    0.00000e+00    0.00000e+00    5.07193e+00    2.25412e+00    5.63525e-01    5.63602e-01    5.63494e-01    5.63602e-01    1.40861e-01    1.40933e-01    1.40861e-01    1.40933e-01    2.85256e+00    9.62920e-01    7.13140e-01    5.28520e-01    7.13140e-01    2.40730e-01    1.32130e-01    1.32130e-01    2.40730e-01
    6.00000e+00    0.00000e+00    0.00000e+00    0.00000e+00    5.07113e+00    2.25371e+00    5.63527e-01    5.63503e-01    5.63357e-01    5.63503e-01    1.40889e-01    1.40878e-01    1.40889e-01    1.40878e-01    2.85256e+00    9.62920e-01    7.13140e-01    5.28520e-01    7.13140e-01    2.40730e-01    1.32130e-01    1.32130e-01    2.40730e-01
    7.00000e+00    0.00000e+00    0.00000e+00    0.00000e+00    5.07014e+00    2.25320e+00    5.63334e-01    5.63442e-01    5.63244e-01    5.63442e-01    1.40931e-01    1.40806e-01    1.40931e-01    1.40806e-01    2.85256e+00    9.62920e-01    7.13140e-01    5.28520e-01    7.13140e-01    2.40730e-01    1.32130e-01    1.32130e-01    2.40730e-01
    8.00000e+00    0.00000e+00    0.00000e+00    0.00000e+00    5.06916e+00    2.25270e+00    5.63261e-01    5.63344e-01    5.63104e-01    5.63344e-01    1.40994e-01    1.40709e-01    1.40994e-01    1.40709e-01    2.85256e+00    9.62920e-01    7.13140e-01    5.28520e-01    7.13140e-01    2.40730e-01    1.32130e-01    1.32130e-01    2.40730e-01
    9.00000e+00    0.00000e+00    0.00000e+00    0.00000e+00    5.06810e+00    2.25218e+00    5.63098e-01    5.63248e-01    5.62980e-01    5.63248e-01    1.41067e-01    1.40608e-01    1.41067e-01    1.40608e-01    2.85256e+00    9.62920e-01    7.13140e-01    5.28520e-01    7.13140e-01    2.40730e-01    1.32130e-01    1.32130e-01    2.40730e-01
    1.00000e+01    0.00000e+00    0.00000e+00    0.00000e+00    5.06709e+00    2.25168e+00    5.62992e-01    5.63146e-01    5.62853e-01    5.63146e-01    1.41150e-01    1.40483e-01    1.41150e-01    1.40483e-01    2.85256e+00    9.62920e-01    7.13140e-01    5.28520e-01    7.13140e-01    2.40730e-01    1.32130e-01    1.32130e-01    2.40730e-01
    1.10000e+01    0.00000e+00    0.00000e+00    0.00000e+00    5.06609e+00    2.25121e+00    5.62857e-01    5.63048e-01    5.62742e-01    5.63048e-01    1.41241e-01    1.40352e-01    1.41241e-01    1.40352e-01    2.85256e+00    9.62920e-01    7.13140e-01    5.28520e-01    7.13140e-01    2.40730e-01    1.32130e-01    1.32130e-01    2.40730e-01
    1.20000e+01    0.00000e+00    0.00000e+00    0.00000e+00    5.06518e+00    2.25079e+00    5.62755e-01    5.62947e-01    5.62643e-01    5.62947e-01    1.41337e-01    1.40211e-01    1.41337e-01    1.40211e-01    2.85256e+00    9.62920e-01    7.13140e-01    5.28520e-01    7.13140e-01    2.40730e-01    1.32130e-01    1.32130e-01    2.40730e-01
    1.30000e+01    0.00000e+00    0.00000e+00    0.00000e+00    5.06437e+00    2.25044e+00    5.62653e-01    5.62853e-01    5.62563e-01    5.62853e-01    1.41431e-01    1.40072e-01    1.41431e-01    1.40072e-01    2.85256e+00    9.62920e-01    7.13140e-01    5.28520e-01    7.13140e-01    2.40730e-01    1.32130e-01    1.32130e-01    2.40730e-01
    1.40000e+01    0.00000e+00    0.00000e+00    0.00000e+00    5.06367e+00    2.25016e+00    5.62578e-01    5.62764e-01    5.62499e-01    5.62764e-01    1.41520e-01    1.39936e-01    1.41520e-01    1.39936e-01    2.85256e+00    9.62920e-01    7.13140e-01    5.28520e-01    7.13140e-01    2.40730e-01    1.32130e-01    1.32130e-01    2.40730e-01
    1.50000e+01    0.00000e+00    0.00000e+00    0.00000e+00    5.06308e+00    2.24994e+00    5.62515e-01    5.62682e-01    5.62452e-01    5.62682e-01    1.41599e-01    1.39809e-01    1.41599e-01    1.39809e-01    2.85256e+00    9.62920e-01    7.13140e-01    5.28520e-01    7.13140e-01    2.40730e-01    1.32130e-01    1.32130e-01    2.40730e-01
    1.60000e+01    0.00000e+00    0.00000e+00    0.00000e+00    5.06259e+00    2.24978e+00    5.62470e-01    5.62605e-01    5.62418e-01    5.62605e-01    1.41663e-01    1.39696e-01    1.41663e-01    1.39696e-01    2.85256e+00    9.62920e-01    7.13140e-01    5.28520e-01    7.13140e-01    2.40730e-01    1.32130e-01    1.32130e-01    2.40730e-01
    1.70000e+01    0.00000e+00    0.00000e+00    0.00000e+00    5.06218e+00    2.24966e+00    5.62437e-01    5.62532e-01    5.62395e-01    5.62532e-01    1.41710e-01    1.39600e-01    1.41710e-01    1.39600e-01    2.85256e+00    9.62920e-01    7.13140e-01    5.28520e-01    7.13140e-01    2.40730e-01    1.32130e-01    1.32130e-01    2.40730e-01
    1.80000e+01    0.00000e+00    0.00000e+00    0.00000e+00    5.06182e+00    2.24958e+00    5.62414e-01    5.62463e-01    5.62376e-01    5.62463e-01    1.41738e-01    1.39523e-01    1.41738e-01    1.39523e-01    2.85256e+00    9.62920e-01    7.13140e-01    5.28520e-01    7.13140e-01    2.40730e-01    1.32130e-01    1.32130e-01    2.40730e-01
    1.90000e+01    0.00000e+00    0.00000e+00    0.00000e+00    5.06149e+00    2.24951e+00    5.62396e-01    5.62396e-01    5.62361e-01    5.62396e-01    1.41743e-01    1.39469e-01    1.41743e-01    1.39469e-01    2.85256e+00    9.62920e-01    7.13140e-01    5.28520e-01    7.13140e-01    2.40730e-01    1.32130e-01    1.32130e-01    2.40730e-01
    2.00000e+01    0.00000e+00    0.00000e+00    0.00000e+00    5.06117e+00    2.24945e+00    5.62381e-01    5.62331e-01    5.62346e-01    5.62331e-01    1.41728e-01    1.39437e-01    1.41728e-01    1.39437e-01    2.85256e+00    9.62920e-01    7.13140e-01    5.28520e-01    7.13140e-01    2.40730e-01    1.32130e-01    1.32130e-01    2.40730e-01
    2.10000e+01    0.00000e+00    0.00000e+00    0.00000e+00    5.06084e+00    2.24938e+00    5.62364e-01    5.62267e-01    5.62327e-01    5.62267e-01    1.41694e-01    1.39426e-01    1.41694e-01    1.39426e-01    2.85256e+00    9.62920e-01    7.13140e-01    5.28520e-01    7.13140e-01    2.40730e-01    1.32130e-01    1.32130e-01    2.40730e-01
    2.20000e+01    0.00000e+00    0.00000e+00    0.00000e+00    5.06051e+00    2.24930e+00    5.62344e-01    5.62205e-01    5.62306e-01    5.62205e-01    1.41641e-01    1.39436e-01    1.41641e-01    1.39436e-01    2.85256e+00    9.62920e-01    7.13140e-01    5.28520e-01    7.13140e-01    2.40730e-01    1.32130e-01    1.32130e-01    2.40730e-01
    2.30000e+01    0.00000e+00    0.00000e+00    0.00000e+00    5.06017e+00    2.24920e+00    5.62320e-01    5.62147e-01    5.62280e-01    5.62147e-01    1.41572e-01    1.39466e-01    1.41572e-01    1.39466e-01    2.85256e+00    9.62920e-01    7.13140e-01    5.28520e-01    7.13140e-01    2.40730e-01    1.32130e-01    1.32130e-01    2.40730e-01
    2.40000e+01    0.00000e+00    0.00000e+00    0.00000e+00    5.05982e+00    2.24908e+00    5.62292e-01    5.62092e-01    5.62251e-01    5.62092e-01    1.41491e-01    1.39513e-01    1.41491e-01    1.39513e-01    2.85256e+00    9.62920e-01    7.13140e-01    5.28520e-01    7.13140e-01    2.40730e-01    1.32130e-01    1.32130e-01    2.40730e-01
    2.50000e+01    0.00000e+00    0.00000e+00    0.00000e+00    5.05947e+00    2.24895e+00    5.62261e-01    5.62044e-01    5.62218e-01    5.62044e-01    1.41401e-01    1.39573e-01    1.41401e-01    1.39573e-01    2.85256e+00    9.62920e-01    7.13140e-01    5.28520e-01    7.13140e-01    2.40730e-01    1.32130e-01    1.32130e-01    2.40730e-01
    2.60000e+01    0.00000e+00    0.00000e+00    0.00000e+00    5.05913e+00    2.24882e+00    5.62225e-01    5.62001e-01    5.62186e-01    5.62001e-01    1.41305e-01    1.39646e-01    1.41305e-01    1.39646e-01    2.85256e+00    9.62920e-01    7.13140e-01    5.28520e-01    7.13140e-01    2.40730e-01    1.32130e-01    1.32130e-01    2.40730e-01
    2.70000e+01    0.00000e+00    0.00000e+00    0.00000e+00    5.05882e+00    2.24868e+00    5.62189e-01    5.61965e-01    5.62149e-01    5.61965e-01    1.41208e-01    1.39727e-01    1.41208e-01    1.39727e-01    2.85256e+00    9.62920e-01    7.13140e-01    5.28520e-01    7.13140e-01    2.40730e-01    1.32130e-01    1.32130e-01    2.40730e-01
    2.80000e+01    0.00000e+00    0.00000e+00    0.00000e+00    5.05853e+00    2.24854e+00    5.62152e-01    5.61936e-01    5.62121e-01    5.61936e-01    1.41109e-01    1.39814e-01    1.41109e-01    1.39814e-01    2.85256e+00    9.62920e-01    7.13140e-01    5.28520e-01    7.13140e-01    2.40730e-01    1.32130e-01    1.32130e-01    2.40730e-01
    2.90000e+01    0.00000e+00    0.00000e+00    0.00000e+00    5.05828e+00    2.24841e+00    5.62118e-01    5.61918e-01    5.62082e-01    5.61918e-01    1.41015e-01    1.39902e-01    1.41015e-01    1.39902e-01    2.85256e+00    9.62920e-01    7.13140e-01    5.28520e-01    7.13140e-01    2.40730e-01    1.32130e-01    1.32130e-01    2.40730e-01
    3.00000e+01    0.00000e+00    0.00000e+00    0.00000e+00    5.05808e+00    2.24829e+00    5.62084e-01    5.61904e-01    5.62069e-01    5.61904e-01    1.40922e-01    1.39992e-01    1.40922e-01    1.39992e-01    2.85256e+00    9.62920e-01    7.13140e-01    5.28520e-01    7.13140e-01    2.40730e-01    1.32130e-01    1.32130e-01    2.40730e-01
    3.10000e+01    0.00000e+00    0.00000e+00    0.00000e+00    5.05791e+00    2.24819e+00    5.62059e-01    5.61899e-01    5.62026e-01    5.61899e-01    1.40841e-01    1.40080e-01    1.40841e-01    1.40080e-01    2.85256e+00    9.62920e-01    7.13140e-01    5.28520e-01    7.13140e-01    2.40730e-01    1.32130e-01    1.32130e-01    2.40730e-01
    3.20000e+01    0.00000e+00    0.00000e+00    0.00000e+00    5.05782e+00    2.24811e+00    5.62030e-01    5.61895e-01    5.62039e-01    5.61895e-01    1.40759e-01    1.40165e-01    1.40759e-01    1.40165e-01    2.85256e+00    9.62920e-01    7.13140e-01    5.28520e-01    7.13140e-01    2.40730e-01    1.32130e-01    1.32130e-01    2.40730e-01
    3.30000e+01    0.00000e+00    0.00000e+00    0.00000e+00    5.05773e+00    2.24804e+00    5.62020e-01    5.61912e-01    5.61983e-01    5.61912e-01    1.40689e-01    1.40241e-01    1.40689e-01    1.40241e-01    2.85256e+00    9.62920e-01    7.13140e-01    5.28520e-01    7.13140e-01    2.40730e-01    1.32130e-01    1.32130e-01    2.40730e-01
    3.40000e+01    0.00000e+00    0.00000e+00    0.00000e+00    5.05773e+00    2.24801e+00    5.61996e-01    5.61907e-01    5.62034e-01    5.61907e-01    1.40625e-01    1.40311e-01    1.40625e-01    1.40311e-01    2.85256e+00    9.62920e-01    7.13140e-01    5.28520e-01    7.13140e-01    2.40730e-01    1.32130e-01    1.32130e-01    2.40730e-01
    3.50000e+01    0.00000e+00    0.00000e+00    0.00000e+00    5.05770e+00    2.24797e+00    5.62004e-01    5.61930e-01    5.61953e-01    5.61930e-01    1.40575e-01    1.40381e-01    1.40575e-01    1.40381e-01    2.85256e+00    9.62920e-01    7.13140e-01    5.28520e-01    7.13140e-01    2.40730e-01    1.32130e-01    1.32130e-01    2.40730e-01
    3.60000e+01    0.00000e+00    0.00000e+00    0.00000e+00    5.05767e+00    2.24794e+00    5.61976e-01    5.61895e-01    5.62019e-01    5.61895e-01    1.40542e-01    1.40431e-01    1.40542e-01    1.40431e-01    2.85256e+00    9.62920e-01    7.13140e-01    5.28520e-01    7.13140e-01    2.40730e-01    1.32130e-01    1.32130e-01    2.40730e-01
    3.70000e+01    0.00000e+00    0.00000e+00    0.00000e+00    5.05773e+00    2.24794e+00    5.61989e-01    5.61951e-01    5.61960e-01    5.61951e-01    1.40509e-01    1.40458e-01    1.40509e-01    1.40458e-01    2.85256e+00    9.62920e-01    7.13140e-01    5.28520e-01    7.13140e-01    2.40730e-01    1.32130e-01    1.32130e-01    2.40730e-01
    3.80000e+01    0.00000e+00    0.00000e+00    0.00000e+00    5.05765e+00    2.24789e+00    5.61976e-01    5.61921e-01    5.61985e-01    5.61921e-01    1.40488e-01    1.40493e-01    1.40488e-01    1.40493e-01    2.85256e+00    9.62920e-01    7.13140e-01    5.28520e-01    7.13140e-01    2.40730e-01    1.32130e-01    1.32130e-01    2.40730e-01
    3.90000e+01    0.00000e+00    0.00000e+00    0.00000e+00    5.05771e+00    2.24791e+00    5.61967e-01    5.61973e-01    5.61967e-01    5.61973e-01    1.40494e-01    1.40469e-01    1.40494e-01    1.40469e-01    2.85256e+00    9.62920e-01    7.13140e-01    5.28520e-01    7.13140e-01    2.40730e-01    1.32130e-01    1.32130e-01    2.40730e-01
    0.00000e+00    1.00000e+00    0.00000e+00    0.00000e+00    5.07454e+00    2.25545e+00    5.63821e-01    5.63936e-01    5.63821e-01    5.63828e-01    1.40877e-01    1.40963e-01    1.40877e-01    1.40963e-01    2.85256e+00    9.62920e-01    7.13140e-01    5.28520e-01    7.13140e-01    2.40730e-01    1.32130e-01    1.32130e-01    2.40730e-01
    1.00000e+00    1.00000e+00    7.99561e-06    6.24598e-05    5.07429e+00    2.25532e+00    5.63870e-01    5.63870e-01    5.63858e-01    5.63656e-01    1.40982e-01    1.40927e-01    1.40916e-01    1.40890e-01    2.85256e+00    9.62920e-01    7.13140e-01    5.28520e-01    7.13140e-01    2.40730e-01    1.32130e-01    1.32130e-01    2.40730e-01
    2.00000e+00    1.00000e+00   -1.23534e-05    6.10056e-05    5.07382e+00    2.25509e+00    5.63766e-01    5.63806e-01    5.63779e-01    5.63611e-01    1.41026e-01    1.40916e-01    1.40994e-01    1.40834e-01    2.85256e+00    9.62920e-01    7.13140e-01    5.28520e-01    7.13140e-01    2.40730e-01    1.32130e-01    1.32130e-01    2.40730e-01
    3.00000e+00    1.00000e+00   -4.26249e-05    1.83947e-05    5.07330e+00    2.25482e+00    5.63701e-01    5.63660e-01    5.63829e-01    5.63576e-01    1.40991e-01    1.40870e-01    1.41030e-01    1.40821e-01    2.85256e+00    9.62920e-01    7.13140e-01    5.28520e-01    7.13140e-01    2.40730e-01    1.32130e-01    1.32130e-01    2.40730e-01
    4.00000e+00    1.00000e+00   -1.28709e-04    4.23012e-05    5.07267e+00    2.25450e+00    5.63524e-01    5.63619e-01    5.63936e-01    5.63459e-01    1.40996e-01    1.40847e-01    1.41090e-01    1.40699e-01    2.85256e+00    9.62920e-01    7.13140e-01    5.28520e-01    7.13140e-01    2.40730e-01    1.32130e-01    1.32130e-01    2.40730e-01
    5.00000e+00    1.00000e+00   -2.75075e-04    2.52612e-05    5.07192e+00    2.25411e+00    5.63249e-01    5.63462e-01    5.64151e-01    5.63355e-01    1.40962e-01    1.40846e-01    1.41198e-01    1.40588e-01    2.85256e+00    9.62920e-01    7.13140e-01    5.28520e-01    7.13140e-01    2.40730e-01    1.32130e-01    1.32130e-01    2.40730e-01
    6.00000e+00    1.00000e+00   -4.67134e-04    1.38966e-06    5.07108e+00    2.25368e+00    5.62837e-01    5.63358e-01    5.64387e-01    5.63322e-01    1.40888e-01    1.40848e-01    1.41312e-01    1.40453e-01    2.85256e+00    9.62920e-01    7.13140e-01    5.28520e-01    7.13140e-01    2.40730e-01    1.32130e-01    1.32130e-01    2.40730e-01
    7.00000e+00    1.00000e+00   -6.90586e-04   -2.76926e-05    5.07017e+00    2.25321e+00    5.62378e-01    5.63183e-01    5.64691e-01    5.63240e-01    1.40819e-01    1.40873e-01    1.41455e-01    1.40320e-01    2.85256e+00    9.62920e-01    7.13140e-01    5.28520e-01    7.13140e-01    2.40730e-01    1.32130e-01    1.32130e-01    2.40730e-01
    8.00000e+00    1.00000e+00   -9.55547e-04   -4.91045e-05    5.06920e+00    2.25272e+00    5.61847e-01    5.63041e-01    5.65057e-01    5.63163e-01    1.40728e-01    1.40896e-01    1.41608e-01    1.40142e-01    2.85256e+00    9.62920e-01    7.13140e-01    5.28520e-01    7.13140e-01    2.40730e-01    1.32130e-01    1.32130e-01    2.40730e-01
    9.00000e+00    1.00000e+00   -1.25691e-03   -7.30213e-05    5.06819e+00    2.25221e+00    5.61239e-01    5.62884e-01    5.65476e-01    5.63084e-01    1.40622e-01    1.40940e-01    1.41773e-01    1.39959e-01    2.85256e+00    9.62920e-01    7.13140e-01    5.28520e-01    7.13140e-01    2.40730e-01    1.32130e-01    1.32130e-01    2.40730e-01
    1.00000e+01    1.00000e+00   -1.58496e-03   -9.17240e-05    5.06719e+00    2.25172e+00    5.60581e-01    5.62747e-01    5.65935e-01    5.63003e-01    1.40504e-01    1.40993e-01    1.41947e-01    1.39759e-01    2.85256e+00    9.62920e-01    7.13140e-01    5.28520e-01    7.13140e-01    2.40730e-01    1.32130e-01    1.32130e-01    2.40730e-01
    1.10000e+01    1.00000e+00   -1.93050e-03   -1.05943e-04    5.06623e+00    2.25126e+00    5.59892e-01    5.62615e-01    5.66425e-01    5.62916e-01    1.40382e-01    1.41059e-01    1.42124e-01    1.39553e-01    2.85256e+00    9.62920e-01    7.13140e-01    5.28520e-01    7.13140e-01    2.40730e-01    1.32130e-01    1.32130e-01    2.40730e-01
    1.20000e+01    1.00000e+00   -2.28380e-03   -1.12314e-04    5.06533e+00    2.25085e+00    5.59192e-01    5.62511e-01    5.66928e-01    5.62830e-01    1.40256e-01    1.41130e-01    1.42297e-01    1.39339e-01    2.85256e+00    9.62920e-01    7.13140e-01    5.28520e-01    7.13140e-01    2.40730e-01    1.32130e-01    1.32130e-01    2.40730e-01
    1.30000e+01    1.00000e+00   -2.63210e-03   -1.12659e-04    5.06452e+00    2.25049e+00    5.58501e-01    5.62427e-01    5.67426e-01    5.62746e-01    1.40134e-01    1.41206e-01    1.42462e-01    1.39130e-01    2.85256e+00    9.62920e-01    7.13140e-01    5.28520e-01    7.13140e-01    2.40730e-01    1.32130e-01    1.32130e-01    2.40730e-01
    1.40000e+01    1.00000e+00   -2.96227e-03   -1.05210e-04    5.06382e+00    2.25019e+00    5.57846e-01    5.62370e-01    5.67898e-01    5.62664e-01    1.40020e-01    1.41282e-01    1.42614e-01    1.38928e-01    2.85256e+00    9.62920e-01    7.13140e-01    5.28520e-01    7.13140e-01    2.40730e-01    1.32130e-01    1.32130e-01    2.40730e-01
    1.50000e+01    1.00000e+00   -3.26226e-03   -9.17557e-05    5.06321e+00    2.24996e+00    5.57247e-01    5.62337e-01    5.68322e-01    5.62587e-01    1.39918e-01    1.41354e-01    1.42746e-01    1.38740e-01    2.85256e+00    9.62920e-01    7.13140e-01    5.28520e-01    7.13140e-01    2.40730e-01    1.32130e-01    1.32130e-01    2.40730e-01
    1.60000e+01    1.00000e+00   -3.52130e-03   -7.25716e-05    5.06270e+00    2.24978e+00    5.56722e-01    5.62325e-01    5.68681e-01    5.62513e-01    1.39830e-01    1.41417e-01    1.42854e-01    1.38573e-01    2.85256e+00    9.62920e-01    7.13140e-01    5.28520e-01    7.13140e-01    2.40730e-01    1.32130e-01    1.32130e-01    2.40730e-01
    1.70000e+01    1.00000e+00   -3.73021e-03   -4.89506e-05    5.06226e+00    2.24965e+00    5.56285e-01    5.62329e-01    5.68956e-01    5.62442e-01    1.39761e-01    1.41469e-01    1.42935e-01    1.38430e-01    2.85256e+00    9.62920e-01    7.13140e-01    5.28520e-01    7.13140e-01    2.40730e-01    1.32130e-01    1.32130e-01    2.40730e-01
    1.80000e+01    1.00000e+00   -3.88234e-03   -2.29281e-05    5.06187e+00    2.24955e+00    5.55948e-01    5.62345e-01    5.69137e-01    5.62376e-01    1.39711e-01    1.41505e-01    1.42984e-01    1.38316e-01    2.85256e+00    9.62920e-01    7.13140e-01    5.28520e-01    7.13140e-01    2.40730e-01    1.32130e-01    1.32130e-01    2.40730e-01
    1.90000e+01    1.00000e+00   -3.97375e-03    3.48021e-06    5.06152e+00    2.24947e+00    5.55715e-01    5.62366e-01    5.69215e-01    5.62316e-01    1.39679e-01    1.41523e-01    1.43001e-01    1.38233e-01    2.85256e+00    9.62920e-01    7.13140e-01    5.28520e-01    7.13140e-01    2.40730e-01    1.32130e-01    1.32130e-01    2.40730e-01
    2.00000e+01    1.00000e+00   -4.00292e-03    2.95271e-05    5.06117e+00    2.24939e+00    5.55588e-01    5.62388e-01    5.69187e-01    5.62258e-01    1.39666e-01    1.41524e-01    1.42986e-01    1.38184e-01    2.85256e+00    9.62920e-01    7.13140e-01    5.28520e-01    7.13140e-01    2.40730e-01    1.32130e-01    1.32130e-01    2.40730e-01
    2.10000e+01    1.00000e+00   -3.97079e-03    5.28466e-05    5.06083e+00    2.24931e+00    5.55566e-01    5.62406e-01    5.69054e-01    5.62206e-01    1.39671e-01    1.41507e-01    1.42941e-01    1.38169e-01    2.85256e+00    9.62920e-01    7.13140e-01    5.28520e-01    7.13140e-01    2.40730e-01    1.32130e-01    1.32130e-01    2.40730e-01
    2.20000e+01    1.00000e+00   -3.88060e-03    7.16021e-05    5.06049e+00    2.24923e+00    5.55644e-01    5.62416e-01    5.68822e-01    5.62163e-01    1.39690e-01    1.41471e-01    1.42865e-01    1.38187e-01    2.85256e+00    9.62920e-01    7.13140e-01    5.28520e-01    7.13140e-01    2.40730e-01    1.32130e-01    1.32130e-01    2.40730e-01
    2.30000e+01    1.00000e+00   -3.73727e-03    8.55027e-05    5.06013e+00    2.24913e+00    5.55814e-01    5.62418e-01    5.68501e-01    5.62127e-01    1.39724e-01    1.41421e-01    1.42765e-01    1.38238e-01    2.85256e+00    9.62920e-01    7.13140e-01    5.28520e-01    7.13140e-01    2.40730e-01    1.32130e-01    1.32130e-01    2.40730e-01
    2.40000e+01    1.00000e+00   -3.54718e-03    9.40990e-05    5.05978e+00    2.24901e+00    5.56066e-01    5.62410e-01    5.68104e-01    5.62099e-01    1.39768e-01    1.41357e-01    1.42641e-01    1.38320e-01    2.85256e+00    9.62920e-01    7.13140e-01    5.28520e-01    7.13140e-01    2.40730e-01    1.32130e-01    1.32130e-01    2.40730e-01
    2.50000e+01    1.00000e+00   -3.31787e-03    9.59066e-05    5.05943e+00    2.24889e+00    5.56389e-01    5.62392e-01    5.67644e-01    5.62082e-01    1.39821e-01    1.41282e-01    1.42499e-01    1.38428e-01    2.85256e+00    9.62920e-01    7.13140e-01    5.28520e-01    7.13140e-01    2.40730e-01    1.32130e-01    1.32130e-01    2.40730e-01
    2.60000e+01    1.00000e+00   -3.05725e-03    9.20979e-05    5.05909e+00    2.24876e+00    5.56771e-01    5.62365e-01    5.67137e-01    5.62075e-01    1.39880e-01    1.41200e-01    1.42342e-01    1.38561e-01    2.85256e+00    9.62920e-01    7.13140e-01    5.28520e-01    7.13140e-01    2.40730e-01    1.32130e-01    1.32130e-01    2.40730e-01
    2.70000e+01    1.00000e+00   -2.77329e-03    8.32119e-05    5.05877e+00    2.24862e+00    5.57199e-01    5.62330e-01    5.66597e-01    5.62077e-01    1.39943e-01    1.41114e-01    1.42175e-01    1.38714e-01    2.85256e+00    9.62920e-01    7.13140e-01    5.28520e-01    7.13140e-01    2.40730e-01    1.32130e-01    1.32130e-01    2.40730e-01
    2.80000e+01    1.00000e+00   -2.47413e-03    7.06147e-05    5.05849e+00    2.24849e+00    5.57660e-01    5.62292e-01    5.66041e-01    5.62085e-01    1.40007e-01    1.41026e-01    1.41999e-01    1.38884e-01    2.85256e+00    9.62920e-01    7.13140e-01    5.28520e-01    7.13140e-01    2.40730e-01    1.32130e-01    1.32130e-01    2.40730e-01
    2.90000e+01    1.00000e+00   -2.16745e-03    5.36540e-05    5.05824e+00    2.24837e+00    5.58143e-01    5.62247e-01    5.65480e-01    5.62101e-01    1.40072e-01    1.40940e-01    1.41822e-01    1.39064e-01    2.85256e+00    9.62920e-01    7.13140e-01    5.28520e-01    7.13140e-01    2.40730e-01    1.32130e-01    1.32130e-01    2.40730e-01
    3.00000e+01    1.00000e+00   -1.85918e-03    3.62546e-05    5.05803e+00    2.24826e+00    5.58637e-01    5.62208e-01    5.64927e-01    5.62122e-01    1.40134e-01    1.40856e-01    1.41642e-01    1.39251e-01    2.85256e+00    9.62920e-01    7.13140e-01    5.28520e-01    7.13140e-01    2.40730e-01    1.32130e-01    1.32130e-01    2.40730e-01
    3.10000e+01    1.00000e+00   -1.55546e-03    1.79985e-05    5.05787e+00    2.24816e+00    5.59133e-01    5.62164e-01    5.64392e-01    5.62142e-01    1.40197e-01    1.40779e-01    1.41467e-01    1.39440e-01    2.85256e+00    9.62920e-01    7.13140e-01    5.28520e-01    7.13140e-01    2.40730e-01    1.32130e-01    1.32130e-01    2.40730e-01
    3.20000e+01    1.00000e+00   -1.26342e-03    3.82681e-06    5.05776e+00    2.24808e+00    5.59620e-01    5.62135e-01    5.63891e-01    5.62159e-01    1.40251e-01    1.40708e-01    1.41289e-01    1.39627e-01    2.85256e+00    9.62920e-01    7.13140e-01    5.28520e-01    7.13140e-01    2.40730e-01    1.32130e-01    1.32130e-01    2.40730e-01
    3.30000e+01    1.00000e+00   -9.88899e-04   -1.22087e-05    5.05769e+00    2.24802e+00    5.60088e-01    5.62088e-01    5.63427e-01    5.62165e-01    1.40309e-01    1.40649e-01    1.41133e-01    1.39809e-01    2.85256e+00    9.62920e-01    7.13140e-01    5.28520e-01    7.13140e-01    2.40730e-01    1.32130e-01    1.32130e-01    2.40730e-01
    3.40000e+01    1.00000e+00   -7.29979e-04   -2.20511e-05    5.05765e+00    2.24798e+00    5.60525e-01    5.62080e-01    5.62988e-01    5.62186e-01    1.40357e-01    1.40587e-01    1.40975e-01    1.39975e-01    2.85256e+00    9.62920e-01    7.13140e-01    5.28520e-01    7.13140e-01    2.40730e-01    1.32130e-01    1.32130e-01    2.40730e-01
    3.50000e+01    1.00000e+00   -4.97989e-04   -2.69783e-05    5.05763e+00    2.24794e+00    5.60947e-01    5.62039e-01    5.62627e-01    5.62159e-01    1.40405e-01    1.40544e-01    1.40833e-01    1.40133e-01    2.85256e+00    9.62920e-01    7.13140e-01    5.28520e-01    7.13140e-01    2.40730e-01    1.32130e-01    1.32130e-01    2.40730e-01
    3.60000e+01    1.00000e+00   -3.06404e-04   -5.73053e-06    5.05763e+00    2.24792e+00    5.61300e-01    5.62057e-01    5.62335e-01    5.62104e-01    1.40440e-01    1.40524e-01    1.40688e-01    1.40257e-01    2.85256e+00    9.62920e-01    7.13140e-01    5.28520e-01    7.13140e-01    2.40730e-01    1.32130e-01    1.32130e-01    2.40730e-01
    3.70000e+01    1.00000e+00   -1.66706e-04   -1.21211e-05    5.05763e+00    2.24790e+00    5.61596e-01    5.62008e-01    5.62155e-01    5.62062e-01    1.40458e-01    1.40489e-01    1.40604e-01    1.40351e-01    2.85256e+00    9.62920e-01    7.13140e-01    5.28520e-01    7.13140e-01    2.40730e-01    1.32130e-01    1.32130e-01    2.40730e-01
    3.80000e+01    1.00000e+00   -6.84498e-05    1.43963e-05    5.05761e+00    2.24788e+00    5.61768e-01    5.62012e-01    5.62005e-01    5.61977e-01    1.40487e-01    1.40516e-01    1.40523e-01    1.40442e-01    2.85256e+00    9.62920e-01    7.13140e-01    5.28520e-01    7.13140e-01    2.40730e-01    1.32130e-01    1.32130e-01    2.40730e-01
    3.90000e+01    1.00000e+00    0.00000e+00    0.00000e+00    5.05761e+00    2.24787e+00    5.61920e-01    5.61980e-01    5.61920e-01    5.61957e-01    1.40496e-01    1.40484e-01    1.40496e-01    1.40484e-01    2.85256e+00    9.62920e-01    7.13140e-01    5.28520e-01    7.13140e-01    2.40730e-01    1.32130e-01    1.32130e-01    2.40730e-01
    0.00000e+00    2.00000e+00    0.00000e+00    0.00000e+00    5.07395e+00    2.25515e+00    5.63759e-01    5.63829e-01    5.63759e-01    5.63762e-01    1.40819e-01    1.41022e-01    1.40819e-01    1.41022e-01    2.85256e+00    9.62920e-01    7.13140e-01    5.28520e-01    7.13140e-01    2.40730e-01    1.32130e-01    1.32130e-01    2.40730e-01
    1.00000e+00    2.00000e+00   -5.46036e-05    2.02844e-04    5.07387e+00    2.25510e+00    5.63803e-01    5.63933e-01    5.64024e-01    5.63214e-01    1.41028e-01    1.41023e-01    1.40901e-01    1.40839e-01    2.85256e+00    9.62920e-01    7.13140e-01    5.28520e-01    7.13140e-01    2.40730e-01    1.32130e-01    1.32130e-01    2.40730e-01
    2.00000e+00    2.00000e+00   -2.13219e-04    1.86339e-04    5.07352e+00    2.25493e+00    5.63539e-01    5.63881e-01    5.64244e-01    5.63232e-01    1.40973e-01    1.41023e-01    1.41013e-01    1.40686e-01    2.85256e+00    9.62920e-01    7.13140e-01    5.28520e-01    7.13140e-01    2.40730e-01    1.32130e-01    1.32130e-01    2.40730e-01
    3.00000e+00    2.00000e+00   -3.95590e-04    1.69952e-04    5.07298e+00    2.25466e+00    5.63176e-01    5.63759e-01    5.64533e-01    5.63174e-01    1.40885e-01    1.41096e-01    1.41071e-01    1.40632e-01    2.85256e+00    9.62920e-01    7.13140e-01    5.28520e-01    7.13140e-01    2.40730e-01    1.32130e-01    1.32130e-01    2.40730e-01
    4.00000e+00    2.00000e+00   -6.28685e-04    2.02641e-04    5.07243e+00    2.25436e+00    5.62771e-01    5.63720e-01    5.64916e-01    5.63026e-01    1.40826e-01    1.41157e-01    1.41181e-01    1.40468e-01    2.85256e+00    9.62920e-01    7.13140e-01    5.28520e-01    7.13140e-01    2.40730e-01    1.32130e-01    1.32130e-01    2.40730e-01
    5.00000e+00    2.00000e+00   -9.09791e-04    2.07371e-04    5.07176e+00    2.25401e+00    5.62236e-01    5.63632e-01    5.65337e-01    5.62926e-01    1.40739e-01    1.41239e-01    1.41323e-01    1.40310e-01    2.85256e+00    9.62920e-01    7.13140e-01    5.28520e-01    7.13140e-01    2.40730e-01    1.32130e-01    1.32130e-01    2.40730e-01