TITLE="LBM output"
VARIABLES = "X", "Y", "U","V","density","f0","f1","f2","f3","f4","f5","f6","f7","f8","feq0","feq1","feq2","feq3","feq4","feq5","feq6","feq7","feq8",
ZONE T = "fluid", I=40, J=40, F=POINT
SOLUTIONTIME=1345
    0.00000e+00    0.00000e+00    0.00000e+00    0.00000e+00    5.16879e+00    2.29718e+00    5.74312e-01    5.74309e-01    5.74312e-01    5.74309e-01    1.43611e-01    1.43574e-01    1.43611e-01    1.43574e-01    2.90983e+00    9.82254e-01    7.27459e-01    5.39132e-01    7.27459e-01    2.45563e-01    1.34783e-01    1.34783e-01    2.45563e-01
    1.00000e+00    0.00000e+00    0.00000e+00    0.00000e+00    5.16898e+00    2.29727e+00    5.74279e-01    5.74385e-01    5.74323e-01    5.74385e-01    1.43590e-01    1.43582e-01    1.43590e-01    1.43582e-01    2.90983e+00    9.82254e-01    7.27459e-01    5.39132e-01    7.27459e-01    2.45563e-01    1.34783e-01    1.34783e-01    2.45563e-01
    2.00000e+00    0.00000e+00    0.00000e+00    0.00000e+00    5.16889e+00    2.29723e+00    5.74349e-01    5.74344e-01    5.74286e-01    5.74344e-01    1.43597e-01    1.43571e-01    1.43597e-01    1.43571e-01    2.90983e+00    9.82254e-01    7.27459e-01    5.39132e-01    7.27459e-01    2.45563e-01    1.34783e-01    1.34783e-01    2.45563e-01
    3.00000e+00    0.00000e+00    0.00000e+00    0.00000e+00    5.16866e+00    2.29713e+00    5.74272e-01    5.74341e-01    5.74277e-01    5.74341e-01    1.43603e-01    1.43548e-01    1.43603e-01    1.43548e-01    2.90983e+00    9.82254e-01    7.27459e-01    5.39132e-01    7.27459e-01    2.45563e-01    1.34783e-01    1.34783e-01    2.45563e-01
    4.00000e+00    0.00000e+00    0.00000e+00    0.00000e+00    5.16846e+00    2.29704e+00    5.74291e-01    5.74294e-01    5.74240e-01    5.74294e-01    1.43625e-01    1.43526e-01    1.43625e-01    1.43526e-01    2.90983e+00    9.82254e-01    7.27459e-01    5.39132e-01    7.27459e-01    2.45563e-01    1.34783e-01    1.34783e-01    2.45563e-01
    5.00000e+00    0.00000e+00    0.00000e+00    0.00000e+00    5.16815e+00    2.29691e+00    5.74237e-01    5.74262e-01    5.74210e-01    5.74262e-01    1.43651e-01    1.43486e-01    1.43651e-01    1.43486e-01    2.90983e+00    9.82254e-01    7.27459e-01    5.39132e-01    7.27459e-01    2.45563e-01    1.34783e-01    1.34783e-01    2.45563e-01
    6.00000e+00    0.00000e+00    0.00000e+00    0.00000e+00    5.16783e+00    2.29677e+00    5.74220e-01    5.74220e-01    5.74170e-01    5.74220e-01    1.43681e-01    1.43436e-01    1.43681e-01    1.43436e-01    2.90983e+00    9.82254e-01    7.27459e-01    5.39132e-01    7.27459e-01    2.45563e-01    1.34783e-01    1.34783e-01    2.45563e-01
    7.00000e+00    0.00000e+00    0.00000e+00    0.00000e+00    5.16746e+00    2.29661e+00    5.74171e-01    5.74181e-01    5.74128e-01    5.74181e-01    1.43710e-01    1.43386e-01    1.43710e-01    1.43386e-01    2.90983e+00    9.82254e-01    7.27459e-01    5.39132e-01    7.27459e-01    2.45563e-01    1.34783e-01    1.34783e-01    2.45563e-01
    8.00000e+00    0.00000e+00    0.00000e+00    0.00000e+00    5.16705e+00    2.29643e+00    5.74137e-01    5.74131e-01    5.74079e-01    5.74131e-01    1.43741e-01    1.43329e-01    1.43741e-01    1.43329e-01    2.90983e+00    9.82254e-01    7.27459e-01    5.39132e-01    7.27459e-01    2.45563e-01    1.34783e-01    1.34783e-01    2.45563e-01
    9.00000e+00    0.00000e+00    0.00000e+00    0.00000e+00    5.16659e+00    2.29623e+00    5.74083e-01    5.74080e-01    5.74028e-01    5.74080e-01    1.43769e-01    1.43276e-01    1.43769e-01    1.43276e-01    2.90983e+00    9.82254e-01    7.27459e-01    5.39132e-01    7.27459e-01    2.45563e-01    1.34783e-01    1.34783e-01    2.45563e-01
    1.00000e+01    0.00000e+00    0.00000e+00    0.00000e+00    5.16610e+00    2.29601e+00    5.74036e-01    5.74022e-01    5.73971e-01    5.74022e-01    1.43797e-01    1.43219e-01    1.43797e-01    1.43219e-01    2.90983e+00    9.82254e-01    7.27459e-01    5.39132e-01    7.27459e-01    2.45563e-01    1.34783e-01    1.34783e-01    2.45563e-01
    1.10000e+01    0.00000e+00    0.00000e+00    0.00000e+00    5.16556e+00    2.29578e+00    5.73977e-01    5.73963e-01    5.73911e-01    5.73963e-01    1.43822e-01    1.43164e-01    1.43822e-01    1.43164e-01    2.90983e+00    9.82254e-01    7.27459e-01    5.39132e-01    7.27459e-01    2.45563e-01    1.34783e-01    1.34783e-01    2.45563e-01
    1.20000e+01    0.00000e+00    0.00000e+00    0.00000e+00    5.16500e+00    2.29553e+00    5.73920e-01    5.73898e-01    5.73847e-01    5.73898e-01    1.43845e-01    1.43109e-01    1.43845e-01    1.43109e-01    2.90983e+00    9.82254e-01    7.27459e-01    5.39132e-01    7.27459e-01    2.45563e-01    1.34783e-01    1.34783e-01    2.45563e-01
    1.30000e+01    0.00000e+00    0.00000e+00    0.00000e+00    5.16441e+00    2.29527e+00    5.73854e-01    5.73832e-01    5.73781e-01    5.73832e-01    1.43863e-01    1.43057e-01    1.43863e-01    1.43057e-01    2.90983e+00    9.82254e-01    7.27459e-01    5.39132e-01    7.27459e-01    2.45563e-01    1.34783e-01    1.34783e-01    2.45563e-01
    1.40000e+01    0.00000e+00    0.00000e+00    0.00000e+00    5.16380e+00    2.29500e+00    5.73789e-01    5.73762e-01    5.73711e-01    5.73762e-01    1.43880e-01    1.43006e-01    1.43880e-01    1.43006e-01    2.90983e+00    9.82254e-01    7.27459e-01    5.39132e-01    7.27459e-01    2.45563e-01    1.34783e-01    1.34783e-01    2.45563e-01
    1.50000e+01    0.00000e+00    0.00000e+00    0.00000e+00    5.16316e+00    2.29472e+00    5.73720e-01    5.73691e-01    5.73640e-01    5.73691e-01    1.43890e-01    1.42960e-01    1.43890e-01    1.42960e-01    2.90983e+00    9.82254e-01    7.27459e-01    5.39132e-01    7.27459e-01    2.45563e-01    1.34783e-01    1.34783e-01    2.45563e-01
    1.60000e+01    0.00000e+00    0.00000e+00    0.00000e+00    5.16252e+00    2.29444e+00    5.73649e-01    5.73619e-01    5.73569e-01    5.73619e-01    1.43895e-01    1.42918e-01    1.43895e-01    1.42918e-01    2.90983e+00    9.82254e-01    7.27459e-01    5.39132e-01    7.27459e-01    2.45563e-01    1.34783e-01    1.34783e-01    2.45563e-01
    1.70000e+01    0.00000e+00    0.00000e+00    0.00000e+00    5.16187e+00    2.29415e+00    5.73577e-01    5.73547e-01    5.73496e-01    5.73547e-01    1.43893e-01    1.42883e-01    1.43893e-01    1.42883e-01    2.90983e+00    9.82254e-01    7.27459e-01    5.39132e-01    7.27459e-01    2.45563e-01    1.34783e-01    1.34783e-01    2.45563e-01
    1.80000e+01    0.00000e+00    0.00000e+00    0.00000e+00    5.16121e+00    2.29386e+00    5.73505e-01    5.73475e-01    5.73424e-01    5.73475e-01    1.43884e-01    1.42854e-01    1.43884e-01    1.42854e-01    2.90983e+00    9.82254e-01    7.27459e-01    5.39132e-01    7.27459e-01    2.45563e-01    1.34783e-01    1.34783e-01    2.45563e-01
    1.90000e+01    0.00000e+00    0.00000e+00    0.00000e+00    5.16056e+00    2.29357e+00    5.73432e-01    5.73404e-01    5.73352e-01    5.73404e-01    1.43866e-01    1.42835e-01    1.43866e-01    1.42835e-01    2.90983e+00    9.82254e-01    7.27459e-01    5.39132e-01    7.27459e-01    2.45563e-01    1.34783e-01    1.34783e-01    2.45563e-01
    2.00000e+01    0.00000e+00    0.00000e+00    0.00000e+00    5.15992e+00    2.29329e+00    5.73361e-01    5.73334e-01    5.73282e-01    5.73334e-01    1.43838e-01    1.42825e-01    1.43838e-01    1.42825e-01    2.90983e+00    9.82254e-01    7.27459e-01    5.39132e-01    7.27459e-01    2.45563e-01    1.34783e-01    1.34783e-01    2.45563e-01
    2.10000e+01    0.00000e+00    0.00000e+00    0.00000e+00    5.15930e+00    2.29301e+00    5.73291e-01    5.73266e-01    5.73213e-01    5.73266e-01    1.43802e-01    1.42825e-01    1.43802e-01    1.42825e-01    2.90983e+00    9.82254e-01    7.27459e-01    5.39132e-01    7.27459e-01    2.45563e-01    1.34783e-01    1.34783e-01    2.45563e-01
    2.20000e+01    0.00000e+00    0.00000e+00    0.00000e+00    5.15868e+00    2.29274e+00    5.73222e-01    5.73200e-01    5.73147e-01    5.73200e-01    1.43755e-01    1.42835e-01    1.43755e-01    1.42835e-01    2.90983e+00    9.82254e-01    7.27459e-01    5.39132e-01    7.27459e-01    2.45563e-01    1.34783e-01    1.34783e-01    2.45563e-01
    2.30000e+01    0.00000e+00    0.00000e+00    0.00000e+00    5.15809e+00    2.29247e+00    5.73155e-01    5.73135e-01    5.73082e-01    5.73135e-01    1.43699e-01    1.42856e-01    1.43699e-01    1.42856e-01    2.90983e+00    9.82254e-01    7.27459e-01    5.39132e-01    7.27459e-01    2.45563e-01    1.34783e-01    1.34783e-01    2.45563e-01
    2.40000e+01    0.00000e+00    0.00000e+00    0.00000e+00    5.15752e+00    2.29222e+00    5.73090e-01    5.73073e-01    5.73020e-01    5.73073e-01    1.43636e-01    1.42885e-01    1.43636e-01    1.42885e-01    2.90983e+00    9.82254e-01    7.27459e-01    5.39132e-01    7.27459e-01    2.45563e-01    1.34783e-01    1.34783e-01    2.45563e-01
    2.50000e+01    0.00000e+00    0.00000e+00    0.00000e+00    5.15697e+00    2.29198e+00    5.73027e-01    5.73012e-01    5.72960e-01    5.73012e-01    1.43567e-01    1.42922e-01    1.43567e-01    1.42922e-01    2.90983e+00    9.82254e-01    7.27459e-01    5.39132e-01    7.27459e-01    2.45563e-01    1.34783e-01    1.34783e-01    2.45563e-01
    2.60000e+01    0.00000e+00    0.00000e+00    0.00000e+00    5.15644e+00    2.29174e+00    5.72967e-01    5.72954e-01    5.72903e-01    5.72954e-01    1.43494e-01    1.42965e-01    1.43494e-01    1.42965e-01    2.90983e+00    9.82254e-01    7.27459e-01    5.39132e-01    7.27459e-01    2.45563e-01    1.34783e-01    1.34783e-01    2.45563e-01
    2.70000e+01    0.00000e+00    0.00000e+00    0.00000e+00    5.15593e+00    2.29152e+00    5.72910e-01    5.72897e-01    5.72848e-01    5.72897e-01    1.43421e-01    1.43010e-01    1.43421e-01    1.43010e-01    2.90983e+00    9.82254e-01    7.27459e-01    5.39132e-01    7.27459e-01    2.45563e-01    1.34783e-01    1.34783e-01    2.45563e-01
    2.80000e+01    0.00000e+00    0.00000e+00    0.00000e+00    5.15545e+00    2.29130e+00    5.72855e-01    5.72843e-01    5.72797e-01    5.72843e-01    1.43349e-01    1.43056e-01    1.43349e-01    1.43056e-01    2.90983e+00    9.82254e-01    7.27459e-01    5.39132e-01    7.27459e-01    2.45563e-01    1.34783e-01    1.34783e-01    2.45563e-01
    2.90000e+01    0.00000e+00    0.00000e+00    0.00000e+00    5.15500e+00    2.29110e+00    5.72803e-01    5.72791e-01    5.72749e-01    5.72791e-01    1.43281e-01    1.43099e-01    1.43281e-01    1.43099e-01    2.90983e+00    9.82254e-01    7.27459e-01    5.39132e-01    7.27459e-01    2.45563e-01    1.34783e-01    1.34783e-01    2.45563e-01
    3.00000e+01    0.00000e+00    0.00000e+00    0.00000e+00    5.15458e+00    2.29092e+00    5.72755e-01    5.72742e-01    5.72705e-01    5.72742e-01    1.43221e-01    1.43138e-01    1.43221e-01    1.43138e-01    2.90983e+00    9.82254e-01    7.27459e-01    5.39132e-01    7.27459e-01    2.45563e-01    1.34783e-01    1.34783e-01    2.45563e-01
    3.10000e+01    0.00000e+00    0.00000e+00    0.00000e+00    5.15419e+00    2.29075e+00    5.72710e-01    5.72696e-01    5.72664e-01    5.72696e-01    1.43171e-01    1.43170e-01    1.43171e-01    1.43170e-01    2.90983e+00    9.82254e-01    7.27459e-01    5.39132e-01    7.27459e-01    2.45563e-01    1.34783e-01    1.34783e-01    2.45563e-01
    3.20000e+01    0.00000e+00    0.00000e+00    0.00000e+00    5.15385e+00    2.29059e+00    5.72669e-01    5.72654e-01    5.72628e-01    5.72654e-01    1.43132e-01    1.43193e-01    1.43132e-01    1.43193e-01    2.90983e+00    9.82254e-01    7.27459e-01    5.39132e-01    7.27459e-01    2.45563e-01    1.34783e-01    1.34783e-01    2.45563e-01
    3.30000e+01    0.00000e+00    0.00000e+00    0.00000e+00    5.15354e+00    2.29046e+00    5.72632e-01    5.72617e-01    5.72596e-01    5.72617e-01    1.43105e-01    1.43206e-01    1.43105e-01    1.43206e-01    2.90983e+00    9.82254e-01    7.27459e-01    5.39132e-01    7.27459e-01    2.45563e-01    1.34783e-01    1.34783e-01    2.45563e-01
    3.40000e+01    0.00000e+00    0.00000e+00    0.00000e+00    5.15328e+00    2.29034e+00    5.72600e-01    5.72585e-01    5.72570e-01    5.72585e-01    1.43091e-01    1.43209e-01    1.43091e-01    1.43209e-01    2.90983e+00    9.82254e-01    7.27459e-01    5.39132e-01    7.27459e-01    2.45563e-01    1.34783e-01    1.34783e-01    2.45563e-01
    3.50000e+01    0.00000e+00    0.00000e+00    0.00000e+00    5.15307e+00    2.29025e+00    5.72574e-01    5.72558e-01    5.72550e-01    5.72558e-01    1.43088e-01    1.43203e-01    1.43088e-01    1.43203e-01    2.90983e+00    9.82254e-01    7.27459e-01    5.39132e-01    7.27459e-01    2.45563e-01    1.34783e-01    1.34783e-01    2.45563e-01
    3.60000e+01    0.00000e+00    0.00000e+00    0.00000e+00    5.15291e+00    2.29017e+00    5.72552e-01    5.72536e-01    5.72535e-01    5.72536e-01    1.43099e-01    1.43188e-01    1.43099e-01    1.43188e-01    2.90983e+00    9.82254e-01    7.27459e-01    5.39132e-01    7.27459e-01    2.45563e-01    1.34783e-01    1.34783e-01    2.45563e-01
    3.70000e+01    0.00000e+00    0.00000e+00    0.00000e+00    5.15280e+00    2.29013e+00    5.72538e-01    5.72525e-01    5.72528e-01    5.72525e-01    1.43110e-01    1.43168e-01    1.43110e-01    1.43168e-01    2.90983e+00    9.82254e-01    7.27459e-01    5.39132e-01    7.27459e-01    2.45563e-01    1.34783e-01    1.34783e-01    2.45563e-01
    3.80000e+01    0.00000e+00    0.00000e+00    0.00000e+00    5.15275e+00    2.29010e+00    5.72526e-01    5.72521e-01    5.72521e-01    5.72521e-01    1.43132e-01    1.43146e-01    1.43132e-01    1.43146e-01    2.90983e+00    9.82254e-01    7.27459e-01    5.39132e-01    7.27459e-01    2.45563e-01    1.34783e-01    1.34783e-01    2.45563e-01
    3.90000e+01    0.00000e+00    0.00000e+00    0.00000e+00    5.15272e+00    2.29009e+00    5.72526e-01    5.72524e-01    5.72526e-01    5.72524e-01    1.43131e-01    1.43133e-01    1.43131e-01    1.43133e-01    2.90983e+00    9.82254e-01    7.27459e-01    5.39132e-01    7.27459e-01    2.45563e-01    1.34783e-01    1.34783e-01    2.45563e-01
    0.00000e+00    1.00000e+00    0.00000e+00    0.00000e+00    5.16901e+00    2.29728e+00    5.74368e-01    5.74281e-01    5.74368e-01    5.74331e-01    1.43612e-01    1.43577e-01    1.43612e-01    1.43577e-01    2.90983e+00    9.82254e-01    7.27459e-01    5.39132e-01    7.27459e-01    2.45563e-01    1.34783e-01    1.34783e-01    2.45563e-01
    1.00000e+00    1.00000e+00   -4.72094e-05   -4.21640e-05    5.16896e+00    2.29726e+00    5.74278e-01    5.74261e-01    5.74436e-01    5.74394e-01    1.43543e-01    1.43582e-01    1.43628e-01    1.43581e-01    2.90983e+00    9.82254e-01    7.27459e-01    5.39132e-01    7.27459e-01    2.45563e-01    1.34783e-01    1.34783e-01    2.45563e-01
    2.00000e+00    1.00000e+00   -9.48537e-05   -1.34968e-05    5.16886e+00    2.29722e+00    5.74189e-01    5.74275e-01    5.74519e-01    5.74308e-01    1.43569e-01    1.43590e-01    1.43667e-01    1.43528e-01    2.90983e+00    9.82254e-01    7.27459e-01    5.39132e-01    7.27459e-01    2.45563e-01    1.34783e-01    1.34783e-01    2.45563e-01
    3.00000e+00    1.00000e+00   -1.73434e-04    4.09709e-09    5.16870e+00    2.29715e+00    5.74089e-01    5.74233e-01    5.74687e-01    5.74221e-01    1.43558e-01    1.43598e-01    1.43713e-01    1.43455e-01    2.90983e+00    9.82254e-01    7.27459e-01    5.39132e-01    7.27459e-01    2.45563e-01    1.34783e-01    1.34783e-01    2.45563e-01
    4.00000e+00    1.00000e+00   -2.94450e-04    2.69663e-05    5.16848e+00    2.29705e+00    5.73889e-01    5.74232e-01    5.74899e-01    5.74119e-01    1.43541e-01    1.43615e-01    1.43785e-01    1.43346e-01    2.90983e+00    9.82254e-01    7.27459e-01    5.39132e-01    7.27459e-01    2.45563e-01    1.34783e-01    1.34783e-01    2.45563e-01
    5.00000e+00    1.00000e+00   -4.43511e-04    4.11552e-05    5.16819e+00    2.29692e+00    5.73625e-01    5.74197e-01    5.75150e-01    5.74034e-01    1.43514e-01    1.43640e-01    1.43873e-01    1.43232e-01    2.90983e+00    9.82254e-01    7.27459e-01    5.39132e-01    7.27459e-01    2.45563e-01    1.34783e-01    1.34783e-01    2.45563e-01
    6.00000e+00    1.00000e+00   -6.11251e-04    5.06645e-05    5.16787e+00    2.29678e+00    5.73314e-01    5.74168e-01    5.75414e-01    5.73969e-01    1.43478e-01    1.43662e-01    1.43976e-01    1.43101e-01    2.90983e+00    9.82254e-01    7.27459e-01    5.39132e-01    7.27459e-01    2.45563e-01    1.34783e-01    1.34783e-01    2.45563e-01
    7.00000e+00    1.00000e+00   -7.87270e-04    5.56277e-05    5.16749e+00    2.29662e+00    5.72975e-01    5.74126e-01    5.75683e-01    5.73908e-01    1.43438e-01    1.43688e-01    1.44083e-01    1.42973e-01    2.90983e+00    9.82254e-01    7.27459e-01    5.39132e-01    7.27459e-01    2.45563e-01    1.34783e-01    1.34783e-01    2.45563e-01
    8.00000e+00    1.00000e+00   -9.67647e-04    6.04633e-05    5.16708e+00    2.29644e+00    5.72624e-01    5.74085e-01    5.75951e-01    5.73850e-01    1.43396e-01    1.43708e-01    1.44194e-01    1.42833e-01    2.90983e+00    9.82254e-01    7.27459e-01    5.39132e-01    7.27459e-01    2.45563e-01    1.34783e-01    1.34783e-01    2.45563e-01
    9.00000e+00    1.00000e+00   -1.14872e-03    6.18638e-05    5.16663e+00    2.29624e+00    5.72261e-01    5.74036e-01    5.76213e-01    5.73795e-01    1.43351e-01    1.43729e-01    1.44303e-01    1.42698e-01    2.90983e+00    9.82254e-01    7.27459e-01    5.39132e-01    7.27459e-01    2.45563e-01    1.34783e-01    1.34783e-01    2.45563e-01
    1.00000e+01    1.00000e+00   -1.32681e-03    6.29779e-05    5.16613e+00    2.29602e+00    5.71898e-01    5.73985e-01    5.76461e-01    5.73740e-01    1.43306e-01    1.43747e-01    1.44411e-01    1.42561e-01    2.90983e+00    9.82254e-01    7.27459e-01    5.39132e-01    7.27459e-01    2.45563e-01    1.34783e-01    1.34783e-01    2.45563e-01
    1.10000e+01    1.00000e+00   -1.49902e-03    6.17271e-05    5.16560e+00    2.29579e+00    5.71537e-01    5.73928e-01    5.76693e-01    5.73688e-01    1.43260e-01    1.43763e-01    1.44514e-01    1.42431e-01    2.90983e+00    9.82254e-01    7.27459e-01    5.39132e-01    7.27459e-01    2.45563e-01    1.34783e-01    1.34783e-01    2.45563e-01
    1.20000e+01    1.00000e+00   -1.66278e-03    5.92292e-05    5.16503e+00    2.29554e+00    5.71185e-01    5.73869e-01    5.76904e-01    5.73637e-01    1.43213e-01    1.43776e-01    1.44611e-01    1.42304e-01    2.90983e+00    9.82254e-01    7.27459e-01    5.39132e-01    7.27459e-01    2.45563e-01    1.34783e-01    1.34783e-01    2.45563e-01
    1.30000e+01    1.00000e+00   -1.81500e-03    5.44154e-05    5.16444e+00    2.29527e+00    5.70846e-01    5.73805e-01    5.77088e-01    5.73591e-01    1.43167e-01    1.43786e-01    1.44699e-01    1.42187e-01    2.90983e+00    9.82254e-01    7.27459e-01    5.39132e-01    7.27459e-01    2.45563e-01    1.34783e-01    1.34783e-01    2.45563e-01
    1.40000e+01    1.00000e+00   -1.95205e-03    4.80639e-05    5.16382e+00    2.29500e+00    5.70527e-01    5.73739e-01    5.77240e-01    5.73548e-01    1.43123e-01    1.43791e-01    1.44778e-01    1.42080e-01    2.90983e+00    9.82254e-01    7.27459e-01    5.39132e-01    7.27459e-01    2.45563e-01    1.34783e-01    1.34783e-01    2.45563e-01
    1.50000e+01    1.00000e+00   -2.07009e-03    3.86768e-05    5.16319e+00    2.29471e+00    5.70234e-01    5.73670e-01    5.77353e-01    5.73513e-01    1.43080e-01    1.43792e-01    1.44843e-01    1.41986e-01    2.90983e+00    9.82254e-01    7.27459e-01    5.39132e-01    7.27459e-01    2.45563e-01    1.34783e-01    1.34783e-01    2.45563e-01
    1.60000e+01    1.00000e+00   -2.16498e-03    2.69581e-05    5.16254e+00    2.29443e+00    5.69975e-01    5.73599e-01    5.77420e-01    5.73486e-01    1.43040e-01    1.43788e-01    1.44893e-01    1.41909e-01    2.90983e+00    9.82254e-01    7.27459e-01    5.39132e-01    7.27459e-01    2.45563e-01    1.34783e-01    1.34783e-01    2.45563e-01
    1.70000e+01    1.00000e+00   -2.23226e-03    1.30664e-05    5.16188e+00    2.29413e+00    5.69759e-01    5.73527e-01    5.77434e-01    5.73465e-01    1.43004e-01    1.43779e-01    1.44925e-01    1.41852e-01    2.90983e+00    9.82254e-01    7.27459e-01    5.39132e-01    7.27459e-01    2.45563e-01    1.34783e-01    1.34783e-01    2.45563e-01
    1.80000e+01    1.00000e+00   -2.26780e-03   -3.22574e-06    5.16122e+00    2.29384e+00    5.69593e-01    5.73455e-01    5.77389e-01    5.73453e-01    1.42973e-01    1.43762e-01    1.44937e-01    1.41817e-01    2.90983e+00    9.82254e-01    7.27459e-01    5.39132e-01    7.27459e-01    2.45563e-01    1.34783e-01    1.34783e-01    2.45563e-01
    1.90000e+01    1.00000e+00   -2.26807e-03   -2.18596e-05    5.16056e+00    2.29355e+00    5.69485e-01    5.73382e-01    5.77281e-01    5.73450e-01    1.42948e-01    1.43738e-01    1.44925e-01    1.41806e-01    2.90983e+00    9.82254e-01    7.27459e-01    5.39132e-01    7.27459e-01    2.45563e-01    1.34783e-01    1.34783e-01    2.45563e-01
    2.00000e+01    1.00000e+00   -2.23029e-03   -4.09881e-05    5.15991e+00    2.29326e+00    5.69440e-01    5.73311e-01    5.77105e-01    5.73449e-01    1.42930e-01    1.43707e-01    1.44889e-01    1.41821e-01    2.90983e+00    9.82254e-01    7.27459e-01    5.39132e-01    7.27459e-01    2.45563e-01    1.34783e-01    1.34783e-01    2.45563e-01
    2.10000e+01    1.00000e+00   -2.15317e-03   -6.05847e-05    5.15928e+00    2.29298e+00    5.69464e-01    5.73240e-01    5.76862e-01    5.73452e-01    1.42921e-01    1.43668e-01    1.44826e-01    1.41863e-01    2.90983e+00    9.82254e-01    7.27459e-01    5.39132e-01    7.27459e-01    2.45563e-01    1.34783e-01    1.34783e-01    2.45563e-01
    2.20000e+01    1.00000e+00   -2.03714e-03   -8.01871e-05    5.15866e+00    2.29271e+00    5.69558e-01    5.73171e-01    5.76556e-01    5.73457e-01    1.42919e-01    1.43622e-01    1.44738e-01    1.41930e-01    2.90983e+00    9.82254e-01    7.27459e-01    5.39132e-01    7.27459e-01    2.45563e-01    1.34783e-01    1.34783e-01    2.45563e-01
    2.30000e+01    1.00000e+00   -1.88437e-03   -9.76679e-05    5.15805e+00    2.29244e+00    5.69720e-01    5.73104e-01    5.76190e-01    5.73456e-01    1.42926e-01    1.43570e-01    1.44626e-01    1.42021e-01    2.90983e+00    9.82254e-01    7.27459e-01    5.39132e-01    7.27459e-01    2.45563e-01    1.34783e-01    1.34783e-01    2.45563e-01
    2.40000e+01    1.00000e+00   -1.69918e-03   -1.11951e-04    5.15747e+00    2.29219e+00    5.69945e-01    5.73040e-01    5.75777e-01    5.73446e-01    1.42941e-01    1.43513e-01    1.44492e-01    1.42133e-01    2.90983e+00    9.82254e-01    7.27459e-01    5.39132e-01    7.27459e-01    2.45563e-01    1.34783e-01    1.34783e-01    2.45563e-01
    2.50000e+01    1.00000e+00   -1.48802e-03   -1.23198e-04    5.15692e+00    2.29194e+00    5.70224e-01    5.72979e-01    5.75329e-01    5.73428e-01    1.42962e-01    1.43452e-01    1.44340e-01    1.42262e-01    2.90983e+00    9.82254e-01    7.27459e-01    5.39132e-01    7.27459e-01    2.45563e-01    1.34783e-01    1.34783e-01    2.45563e-01
    2.60000e+01    1.00000e+00   -1.25886e-03   -1.29617e-04    5.15638e+00    2.29171e+00    5.70545e-01    5.72920e-01    5.74862e-01    5.73394e-01    1.42990e-01    1.43391e-01    1.44174e-01    1.42401e-01    2.90983e+00    9.82254e-01    7.27459e-01    5.39132e-01    7.27459e-01    2.45563e-01    1.34783e-01    1.34783e-01    2.45563e-01
    2.70000e+01    1.00000e+00   -1.02112e-03   -1.30389e-04    5.15588e+00    2.29148e+00    5.70894e-01    5.72865e-01    5.74392e-01    5.73343e-01    1.43022e-01    1.43331e-01    1.44002e-01    1.42545e-01    2.90983e+00    9.82254e-01    7.27459e-01    5.39132e-01    7.27459e-01    2.45563e-01    1.34783e-01    1.34783e-01    2.45563e-01
    2.80000e+01    1.00000e+00   -7.84995e-04   -1.26112e-04    5.15540e+00    2.29127e+00    5.71253e-01    5.72813e-01    5.73939e-01    5.73276e-01    1.43056e-01    1.43273e-01    1.43829e-01    1.42687e-01    2.90983e+00    9.82254e-01    7.27459e-01    5.39132e-01    7.27459e-01    2.45563e-01    1.34783e-01    1.34783e-01    2.45563e-01
    2.90000e+01    1.00000e+00   -5.60755e-04   -1.16855e-04    5.15495e+00    2.29108e+00    5.71605e-01    5.72764e-01    5.73520e-01    5.73194e-01    1.43089e-01    1.43221e-01    1.43663e-01    1.42820e-01    2.90983e+00    9.82254e-01    7.27459e-01    5.39132e-01    7.27459e-01    2.45563e-01    1.34783e-01    1.34783e-01    2.45563e-01
    3.00000e+01    1.00000e+00   -3.57913e-04   -1.02500e-04    5.15454e+00    2.29090e+00    5.71932e-01    5.72720e-01    5.73151e-01    5.73097e-01    1.43120e-01    1.43177e-01    1.43509e-01    1.42939e-01    2.90983e+00    9.82254e-01    7.27459e-01    5.39132e-01    7.27459e-01    2.45563e-01    1.34783e-01    1.34783e-01    2.45563e-01
    3.10000e+01    1.00000e+00   -1.84794e-04   -8.43515e-05    5.15416e+00    2.29073e+00    5.72220e-01    5.72679e-01    5.72844e-01    5.72990e-01    1.43148e-01    1.43141e-01    1.43374e-01    1.43039e-01    2.90983e+00    9.82254e-01    7.27459e-01    5.39132e-01    7.27459e-01    2.45563e-01    1.34783e-01    1.34783e-01    2.45563e-01
    3.20000e+01    1.00000e+00   -4.77956e-05   -6.39500e-05    5.15383e+00    2.29058e+00    5.72455e-01    5.72643e-01    5.72609e-01    5.72879e-01    1.43169e-01    1.43115e-01    1.43262e-01    1.43116e-01    2.90983e+00    9.82254e-01    7.27459e-01    5.39132e-01    7.27459e-01    2.45563e-01    1.34783e-01    1.34783e-01    2.45563e-01
    3.30000e+01    1.00000e+00    4.93186e-05   -4.21346e-05    5.15353e+00    2.29045e+00    5.72628e-01    5.72612e-01    5.72449e-01    5.72767e-01    1.43183e-01    1.43099e-01    1.43176e-01    1.43168e-01    2.90983e+00    9.82254e-01    7.27459e-01    5.39132e-01    7.27459e-01    2.45563e-01    1.34783e-01    1.34783e-01    2.45563e-01
    3.40000e+01    1.00000e+00    1.06203e-04   -2.11265e-05    5.15328e+00    2.29034e+00    5.72735e-01    5.72586e-01    5.72362e-01    5.72663e-01    1.43190e-01    1.43092e-01    1.43118e-01    1.43195e-01    2.90983e+00    9.82254e-01    7.27459e-01    5.39132e-01    7.27459e-01    2.45563e-01    1.34783e-01    1.34783e-01    2.45563e-01
    3.50000e+01    1.00000e+00    1.24167e-04   -1.04311e-06    5.15308e+00    2.29025e+00    5.72779e-01    5.72564e-01    5.72347e-01    5.72569e-01    1.43188e-01    1.43096e-01    1.43085e-01    1.43201e-01    2.90983e+00    9.82254e-01    7.27459e-01    5.39132e-01    7.27459e-01    2.45563e-01    1.34783e-01    1.34783e-01    2.45563e-01
    3.60000e+01    1.00000e+00    1.08848e-04    1.46330e-05    5.15292e+00    2.29018e+00    5.72763e-01    5.72551e-01    5.72384e-01    5.72497e-01    1.43180e-01    1.43106e-01    1.43078e-01    1.43186e-01    2.90983e+00    9.82254e-01    7.27459e-01    5.39132e-01    7.27459e-01    2.45563e-01    1.34783e-01    1.34783e-01    2.45563e-01
    3.70000e+01    1.00000e+00    6.90929e-05    2.31787e-05    5.15282e+00    2.29014e+00    5.72702e-01    5.72537e-01    5.72463e-01    5.72452e-01    1.43164e-01    1.43121e-01    1.43088e-01    1.43161e-01    2.90983e+00    9.82254e-01    7.27459e-01    5.39132e-01    7.27459e-01    2.45563e-01    1.34783e-01    1.34783e-01    2.45563e-01
    3.80000e+01    1.00000e+00    2.51727e-05    1.84268e-05    5.15277e+00    2.29011e+00    5.72610e-01    5.72531e-01    5.72518e-01    5.72463e-01    1.43151e-01    1.43130e-01    1.43118e-01    1.43136e-01    2.90983e+00    9.82254e-01    7.27459e-01    5.39132e-01    7.27459e-01    2.45563e-01    1.34783e-01    1.34783e-01    2.45563e-01
    3.90000e+01    1.00000e+00    0.00000e+00    0.00000e+00    5.15276e+00    2.29011e+00    5.72539e-01    5.72523e-01    5.72539e-01    5.72531e-01    1.43131e-01    1.43128e-01    1.43131e-01    1.43128e-01    2.90983e+00    9.82254e-01    7.27459e-01    5.39132e-01    7.27459e-01    2.45563e-01    1.34783e-01    1.34783e-01    2.45563e-01
    0.00000e+00    2.00000e+00    0.00000e+00    0.00000e+00    5.16905e+00    2.29730e+00    5.74360e-01    5.74352e-01    5.74360e-01    5.74318e-01    1.43602e-01    1.43581e-01    1.43602e-01    1.43581e-01    2.90983e+00    9.82254e-01    7.27459e-01    5.39132e-01    7.27459e-01    2.45563e-01    1.34783e-01    1.34783e-01    2.45563e-01
    1.00000e+00    2.00000e+00   -7.78826e-05   -6.20099e-06    5.16898e+00    2.29727e+00    5.74296e-01    5.74223e-01    5.74571e-01    5.74246e-01    1.43553e-01    1.43630e-01    1.43621e-01    1.43571e-01    2.90983e+00    9.82254e-01    7.27459e-01    5.39132e-01    7.27459e-01    2.45563e-01    1.34783e-01    1.34783e-01    2.45563e-01
    2.00000e+00    2.00000e+00   -2.25438e-04    5.89645e-05    5.16888e+00    2.29722e+00    5.74083e-01    5.74282e-01    5.74865e-01    5.74075e-01    1.43535e-01    1.43688e-01    1.43678e-01    1.43448e-01    2.90983e+00    9.82254e-01    7.27459e-01    5.39132e-01    7.27459e-01    2.45563e-01    1.34783e-01    1.34783e-01    2.45563e-01
    3.00000e+00    2.00000e+00   -4.26657e-04    1.26094e-04    5.16871e+00    2.29715e+00    5.73770e-01    5.74325e-01    5.75248e-01    5.73883e-01    1.43493e-01    1.43779e-01    1.43752e-01    1.43311e-01    2.90983e+00    9.82254e-01    7.27459e-01    5.39132e-01    7.27459e-01    2.45563e-01    1.34783e-01    1.34783e-01    2.45563e-01
    4.00000e+00    2.00000e+00   -6.82116e-04    1.93932e-04    5.16848e+00    2.29705e+00    5.73359e-01    5.74365e-01    5.75713e-01    5.73689e-01    1.43442e-01    1.43873e-01    1.43865e-01    1.43125e-01    2.90983e+00    9.82254e-01    7.27459e-01    5.39132e-01    7.27459e-01    2.45563e-01    1.34783e-01    1.34783e-01    2.45563e-01
    5.00000e+00    2.00000e+00   -9.79424e-04    2.42860e-04    5.16821e+00    2.29693e+00    5.72845e-01    5.74381e-01    5.76230e-01    5.73538e-01    1.43371e-01    1.43978e-01    1.44003e-01    1.42934e-01    2.90983e+00    9.82254e-01    7.27459e-01    5.39132e-01    7.27459e-01    2.45563e-01    1.34783e-01    1.34783e-01    2.45563e-01