TITLE="LBM output"
VARIABLES = "X", "Y", "U","V","density","f0","f1","f2","f3","f4","f5","f6","f7","f8","feq0","feq1","feq2","feq3","feq4","feq5","feq6","feq7","feq8",
ZONE T = "fluid", I=40, J=40, F=POINT
SOLUTIONTIME=53
    0.00000e+00    0.00000e+00    0.00000e+00    0.00000e+00    5.00000e+00    2.22222e+00    5.55556e-01    5.55555e-01    5.55556e-01    5.55555e-01    1.38889e-01    1.38889e-01    1.38889e-01    1.38889e-01    2.80484e+00    9.46810e-01    7.01209e-01    5.19678e-01    7.01209e-01    2.36702e-01    1.29919e-01    1.29919e-01    2.36702e-01
    1.00000e+00    0.00000e+00    0.00000e+00    0.00000e+00    5.00000e+00    2.22222e+00    5.55556e-01    5.55555e-01    5.55555e-01    5.55555e-01    1.38889e-01    1.38889e-01    1.38889e-01    1.38889e-01    2.80484e+00    9.46810e-01    7.01209e-01    5.19678e-01    7.01209e-01    2.36702e-01    1.29919e-01    1.29919e-01    2.36702e-01
    2.00000e+00    0.00000e+00    0.00000e+00    0.00000e+00    5.00000e+00    2.22222e+00    5.55555e-01    5.55555e-01    5.55555e-01    5.55555e-01    1.38889e-01    1.38889e-01    1.38889e-01    1.38889e-01    2.80484e+00    9.46810e-01    7.01209e-01    5.19678e-01    7.01209e-01    2.36702e-01    1.29919e-01    1.29919e-01    2.36702e-01
    3.00000e+00    0.00000e+00    0.00000e+00    0.00000e+00    5.00000e+00    2.22222e+00    5.55555e-01    5.55555e-01    5.55556e-01    5.55555e-01    1.38889e-01    1.38889e-01    1.38889e-01    1.38889e-01    2.80484e+00    9.46810e-01    7.01209e-01    5.19678e-01    7.01209e-01    2.36702e-01    1.29919e-01    1.29919e-01    2.36702e-01
    4.00000e+00    0.00000e+00    0.00000e+00    0.00000e+00    5.00000e+00    2.22222e+00    5.55556e-01    5.55555e-01    5.55555e-01    5.55555e-01    1.38889e-01    1.38889e-01    1.38889e-01    1.38889e-01    2.80484e+00    9.46810e-01    7.01209e-01    5.19678e-01    7.01209e-01    2.36702e-01    1.29919e-01    1.29919e-01    2.36702e-01
    5.00000e+00    0.00000e+00    0.00000e+00    0.00000e+00    5.00000e+00    2.22222e+00    5.55555e-01    5.55555e-01    5.55555e-01    5.55555e-01    1.38889e-01    1.38889e-01    1.38889e-01    1.38889e-01    2.80484e+00    9.46810e-01    7.01209e-01    5.19678e-01    7.01209e-01    2.36702e-01    1.29919e-01    1.29919e-01    2.36702e-01
    6.00000e+00    0.00000e+00    0.00000e+00    0.00000e+00    5.00000e+00    2.22222e+00    5.55555e-01    5.55556e-01    5.55556e-01    5.55556e-01    1.38889e-01    1.38889e-01    1.38889e-01    1.38889e-01    2.80484e+00    9.46810e-01    7.01209e-01    5.19678e-01    7.01209e-01    2.36702e-01    1.29919e-01    1.29919e-01    2.36702e-01
    7.00000e+00    0.00000e+00    0.00000e+00    0.00000e+00    5.00000e+00    2.22222e+00    5.55556e-01    5.55555e-01    5.55556e-01    5.55555e-01    1.38889e-01    1.38889e-01    1.38889e-01    1.38889e-01    2.80484e+00    9.46810e-01    7.01209e-01    5.19678e-01    7.01209e-01    2.36702e-01    1.29919e-01    1.29919e-01    2.36702e-01
    8.00000e+00    0.00000e+00    0.00000e+00    0.00000e+00    5.00000e+00    2.22222e+00    5.55556e-01    5.55554e-01    5.55555e-01    5.55554e-01    1.38890e-01    1.38889e-01    1.38890e-01    1.38889e-01    2.80484e+00    9.46810e-01    7.01209e-01    5.19678e-01    7.01209e-01    2.36702e-01    1.29919e-01    1.29919e-01    2.36702e-01
    9.00000e+00    0.00000e+00    0.00000e+00    0.00000e+00    5.00000e+00    2.22222e+00    5.55555e-01    5.55556e-01    5.55556e-01    5.55556e-01    1.38889e-01    1.38889e-01    1.38889e-01    1.38889e-01    2.80484e+00    9.46810e-01    7.01209e-01    5.19678e-01    7.01209e-01    2.36702e-01    1.29919e-01    1.29919e-01    2.36702e-01
    1.00000e+01    0.00000e+00    0.00000e+00    0.00000e+00    5.00000e+00    2.22222e+00    5.55556e-01    5.55555e-01    5.55556e-01    5.55555e-01    1.38889e-01    1.38889e-01    1.38889e-01    1.38889e-01    2.80484e+00    9.46810e-01    7.01209e-01    5.19678e-01    7.01209e-01    2.36702e-01    1.29919e-01    1.29919e-01    2.36702e-01
    1.10000e+01    0.00000e+00    0.00000e+00    0.00000e+00    5.00000e+00    2.22222e+00    5.55556e-01    5.55554e-01    5.55555e-01    5.55554e-01    1.38890e-01    1.38889e-01    1.38890e-01    1.38889e-01    2.80484e+00    9.46810e-01    7.01209e-01    5.19678e-01    7.01209e-01    2.36702e-01    1.29919e-01    1.29919e-01    2.36702e-01
    1.20000e+01    0.00000e+00    0.00000e+00    0.00000e+00    5.00000e+00    2.22222e+00    5.55555e-01    5.55555e-01    5.55555e-01    5.55555e-01    1.38889e-01    1.38889e-01    1.38889e-01    1.38889e-01    2.80484e+00    9.46810e-01    7.01209e-01    5.19678e-01    7.01209e-01    2.36702e-01    1.29919e-01    1.29919e-01    2.36702e-01
    1.30000e+01    0.00000e+00    0.00000e+00    0.00000e+00    5.00000e+00    2.22222e+00    5.55555e-01    5.55556e-01    5.55556e-01    5.55556e-01    1.38889e-01    1.38889e-01    1.38889e-01    1.38889e-01    2.80484e+00    9.46810e-01    7.01209e-01    5.19678e-01    7.01209e-01    2.36702e-01    1.29919e-01    1.29919e-01    2.36702e-01
    1.40000e+01    0.00000e+00    0.00000e+00    0.00000e+00    5.00000e+00    2.22222e+00    5.55556e-01    5.55555e-01    5.55555e-01    5.55555e-01    1.38890e-01    1.38889e-01    1.38890e-01    1.38889e-01    2.80484e+00    9.46810e-01    7.01209e-01    5.19678e-01    7.01209e-01    2.36702e-01    1.29919e-01    1.29919e-01    2.36702e-01
    1.50000e+01    0.00000e+00    0.00000e+00    0.00000e+00    5.00000e+00    2.22222e+00    5.55555e-01    5.55555e-01    5.55555e-01    5.55555e-01    1.38890e-01    1.38889e-01    1.38890e-01    1.38889e-01    2.80484e+00    9.46810e-01    7.01209e-01    5.19678e-01    7.01209e-01    2.36702e-01    1.29919e-01    1.29919e-01    2.36702e-01
    1.60000e+01    0.00000e+00    0.00000e+00    0.00000e+00    5.00000e+00    2.22222e+00    5.55555e-01    5.55555e-01    5.55556e-01    5.55555e-01    1.38889e-01    1.38889e-01    1.38889e-01    1.38889e-01    2.80484e+00    9.46810e-01    7.01209e-01    5.19678e-01    7.01209e-01    2.36702e-01    1.29919e-01    1.29919e-01    2.36702e-01
    1.70000e+01    0.00000e+00    0.00000e+00    0.00000e+00    5.00000e+00    2.22222e+00    5.55556e-01    5.55555e-01    5.55556e-01    5.55555e-01    1.38889e-01    1.38889e-01    1.38889e-01    1.38889e-01    2.80484e+00    9.46810e-01    7.01209e-01    5.19678e-01    7.01209e-01    2.36702e-01    1.29919e-01    1.29919e-01    2.36702e-01
    1.80000e+01    0.00000e+00    0.00000e+00    0.00000e+00    5.00000e+00    2.22222e+00    5.55556e-01    5.55555e-01    5.55555e-01    5.55555e-01    1.38890e-01    1.38888e-01    1.38890e-01    1.38888e-01    2.80484e+00    9.46810e-01    7.01209e-01    5.19678e-01    7.01209e-01    2.36702e-01    1.29919e-01    1.29919e-01    2.36702e-01
    1.90000e+01    0.00000e+00    0.00000e+00    0.00000e+00    5.00000e+00    2.22222e+00    5.55555e-01    5.55555e-01    5.55556e-01    5.55555e-01    1.38889e-01    1.38889e-01    1.38889e-01    1.38889e-01    2.80484e+00    9.46810e-01    7.01209e-01    5.19678e-01    7.01209e-01    2.36702e-01    1.29919e-01    1.29919e-01    2.36702e-01
    2.00000e+01    0.00000e+00    0.00000e+00    0.00000e+00    5.00000e+00    2.22222e+00    5.55555e-01    5.55555e-01    5.55556e-01    5.55555e-01    1.38889e-01    1.38889e-01    1.38889e-01    1.38889e-01    2.80484e+00    9.46810e-01    7.01209e-01    5.19678e-01    7.01209e-01    2.36702e-01    1.29919e-01    1.29919e-01    2.36702e-01
    2.10000e+01    0.00000e+00    0.00000e+00    0.00000e+00    5.00000e+00    2.22222e+00    5.55556e-01    5.55555e-01    5.55555e-01    5.55555e-01    1.38890e-01    1.38889e-01    1.38890e-01    1.38889e-01    2.80484e+00    9.46810e-01    7.01209e-01    5.19678e-01    7.01209e-01    2.36702e-01    1.29919e-01    1.29919e-01    2.36702e-01
    2.20000e+01    0.00000e+00    0.00000e+00    0.00000e+00    5.00000e+00    2.22222e+00    5.55555e-01    5.55555e-01    5.55555e-01    5.55555e-01    1.38889e-01    1.38888e-01    1.38889e-01    1.38888e-01    2.80484e+00    9.46810e-01    7.01209e-01    5.19678e-01    7.01209e-01    2.36702e-01    1.29919e-01    1.29919e-01    2.36702e-01
    2.30000e+01    0.00000e+00    0.00000e+00    0.00000e+00    5.00000e+00    2.22222e+00    5.55555e-01    5.55555e-01    5.55556e-01    5.55555e-01    1.38889e-01    1.38889e-01    1.38889e-01    1.38889e-01    2.80484e+00    9.46810e-01    7.01209e-01    5.19678e-01    7.01209e-01    2.36702e-01    1.29919e-01    1.29919e-01    2.36702e-01
    2.40000e+01    0.00000e+00    0.00000e+00    0.00000e+00    5.00000e+00    2.22222e+00    5.55556e-01    5.55555e-01    5.55556e-01    5.55555e-01    1.38889e-01    1.38889e-01    1.38889e-01    1.38889e-01    2.80484e+00    9.46810e-01    7.01209e-01    5.19678e-01    7.01209e-01    2.36702e-01    1.29919e-01    1.29919e-01    2.36702e-01
    2.50000e+01    0.00000e+00    0.00000e+00    0.00000e+00    5.00000e+00    2.22222e+00    5.55556e-01    5.55555e-01    5.55555e-01    5.55555e-01    1.38890e-01    1.38888e-01    1.38890e-01    1.38888e-01    2.80484e+00    9.46810e-01    7.01209e-01    5.19678e-01    7.01209e-01    2.36702e-01    1.29919e-01    1.29919e-01    2.36702e-01
    2.60000e+01    0.00000e+00    0.00000e+00    0.00000e+00    5.00000e+00    2.22222e+00    5.55555e-01    5.55555e-01    5.55556e-01    5.55555e-01    1.38889e-01    1.38889e-01    1.38889e-01    1.38889e-01    2.80484e+00    9.46810e-01    7.01209e-01    5.19678e-01    7.01209e-01    2.36702e-01    1.29919e-01    1.29919e-01    2.36702e-01
    2.70000e+01    0.00000e+00    0.00000e+00    0.00000e+00    5.00000e+00    2.22222e+00    5.55555e-01    5.55555e-01    5.55556e-01    5.55555e-01    1.38889e-01    1.38889e-01    1.38889e-01    1.38889e-01    2.80484e+00    9.46810e-01    7.01209e-01    5.19678e-01    7.01209e-01    2.36702e-01    1.29919e-01    1.29919e-01    2.36702e-01
    2.80000e+01    0.00000e+00    0.00000e+00    0.00000e+00    5.00000e+00    2.22222e+00    5.55556e-01    5.55556e-01    5.55555e-01    5.55556e-01    1.38889e-01    1.38889e-01    1.38889e-01    1.38889e-01    2.80484e+00    9.46810e-01    7.01209e-01    5.19678e-01    7.01209e-01    2.36702e-01    1.29919e-01    1.29919e-01    2.36702e-01
    2.90000e+01    0.00000e+00    0.00000e+00    0.00000e+00    5.00000e+00    2.22222e+00    5.55556e-01    5.55555e-01    5.55555e-01    5.55555e-01    1.38889e-01    1.38889e-01    1.38889e-01    1.38889e-01    2.80484e+00    9.46810e-01    7.01209e-01    5.19678e-01    7.01209e-01    2.36702e-01    1.29919e-01    1.29919e-01    2.36702e-01
    3.00000e+01    0.00000e+00    0.00000e+00    0.00000e+00    5.00000e+00    2.22222e+00    5.55555e-01    5.55555e-01    5.55556e-01    5.55555e-01    1.38889e-01    1.38889e-01    1.38889e-01    1.38889e-01    2.80484e+00    9.46810e-01    7.01209e-01    5.19678e-01    7.01209e-01    2.36702e-01    1.29919e-01    1.29919e-01    2.36702e-01
    3.10000e+01    0.00000e+00    0.00000e+00    0.00000e+00    5.00000e+00    2.22222e+00    5.55556e-01    5.55556e-01    5.55555e-01    5.55556e-01    1.38889e-01    1.38889e-01    1.38889e-01    1.38889e-01    2.80484e+00    9.46810e-01    7.01209e-01    5.19678e-01    7.01209e-01    2.36702e-01    1.29919e-01    1.29919e-01    2.36702e-01
    3.20000e+01    0.00000e+00    0.00000e+00    0.00000e+00    5.00000e+00    2.22222e+00    5.55556e-01    5.55556e-01    5.55555e-01    5.55556e-01    1.38889e-01    1.38889e-01    1.38889e-01    1.38889e-01    2.80484e+00    9.46810e-01    7.01209e-01    5.19678e-01    7.01209e-01    2.36702e-01    1.29919e-01    1.29919e-01    2.36702e-01
    3.30000e+01    0.00000e+00    0.00000e+00    0.00000e+00    5.00000e+00    2.22222e+00    5.55555e-01    5.55555e-01    5.55556e-01    5.55555e-01    1.38889e-01    1.38889e-01    1.38889e-01    1.38889e-01    2.80484e+00    9.46810e-01    7.01209e-01    5.19678e-01    7.01209e-01    2.36702e-01    1.29919e-01    1.29919e-01    2.36702e-01
    3.40000e+01    0.00000e+00    0.00000e+00    0.00000e+00    5.00000e+00    2.22222e+00    5.55556e-01    5.55556e-01    5.55555e-01    5.55556e-01    1.38889e-01    1.38889e-01    1.38889e-01    1.38889e-01    2.80484e+00    9.46810e-01    7.01209e-01    5.19678e-01    7.01209e-01    2.36702e-01    1.29919e-01    1.29919e-01    2.36702e-01
    3.50000e+01    0.00000e+00    0.00000e+00    0.00000e+00    5.00000e+00    2.22222e+00    5.55556e-01    5.55556e-01    5.55555e-01    5.55556e-01    1.38889e-01    1.38889e-01    1.38889e-01    1.38889e-01    2.80484e+00    9.46810e-01    7.01209e-01    5.19678e-01    7.01209e-01    2.36702e-01    1.29919e-01    1.29919e-01    2.36702e-01
    3.60000e+01    0.00000e+00    0.00000e+00    0.00000e+00    5.00000e+00    2.22222e+00    5.55556e-01    5.55555e-01    5.55556e-01    5.55555e-01    1.38889e-01    1.38889e-01    1.38889e-01    1.38889e-01    2.80484e+00    9.46810e-01    7.01209e-01    5.19678e-01    7.01209e-01    2.36702e-01    1.29919e-01    1.29919e-01    2.36702e-01
    3.70000e+01    0.00000e+00    0.00000e+00    0.00000e+00    5.00000e+00    2.22222e+00    5.55556e-01    5.55556e-01    5.55556e-01    5.55556e-01    1.38889e-01    1.38889e-01    1.38889e-01    1.38889e-01    2.80484e+00    9.46810e-01    7.01209e-01    5.19678e-01    7.01209e-01    2.36702e-01    1.29919e-01    1.29919e-01    2.36702e-01
    3.80000e+01    0.00000e+00    0.00000e+00    0.00000e+00    5.00000e+00    2.22222e+00    5.55556e-01    5.55556e-01    5.55555e-01    5.55556e-01    1.38889e-01    1.38889e-01    1.38889e-01    1.38889e-01    2.80484e+00    9.46810e-01    7.01209e-01    5.19678e-01    7.01209e-01    2.36702e-01    1.29919e-01    1.29919e-01    2.36702e-01
    3.90000e+01    0.00000e+00    0.00000e+00    0.00000e+00    5.00000e+00    2.22222e+00    5.55556e-01    5.55556e-01    5.55556e-01    5.55556e-01    1.38889e-01    1.38889e-01    1.38889e-01    1.38889e-01    2.80484e+00    9.46810e-01    7.01209e-01    5.19678e-01    7.01209e-01    2.36702e-01    1.29919e-01    1.29919e-01    2.36702e-01
    0.00000e+00    1.00000e+00    0.00000e+00    0.00000e+00    5.00000e+00    2.22222e+00    5.55555e-01    5.55556e-01    5.55555e-01    5.55555e-01    1.38889e-01    1.38889e-01    1.38889e-01    1.38889e-01    2.80484e+00    9.46810e-01    7.01209e-01    5.19678e-01    7.01209e-01    2.36702e-01    1.29919e-01    1.29919e-01    2.36702e-01
    1.00000e+00    1.00000e+00    1.81686e-07    3.06422e-07    5.00000e+00    2.22222e+00    5.55556e-01    5.55556e-01    5.55555e-01    5.55555e-01    1.38889e-01    1.38889e-01    1.38888e-01    1.38889e-01    2.80484e+00    9.46810e-01    7.01209e-01    5.19678e-01    7.01209e-01    2.36702e-01    1.29919e-01    1.29919e-01    2.36702e-01
    2.00000e+00    1.00000e+00    5.36975e-08    2.45135e-07    5.00000e+00    2.22222e+00    5.55556e-01    5.55555e-01    5.55555e-01    5.55555e-01    1.38889e-01    1.38889e-01    1.38888e-01    1.38889e-01    2.80484e+00    9.46810e-01    7.01209e-01    5.19678e-01    7.01209e-01    2.36702e-01    1.29919e-01    1.29919e-01    2.36702e-01
    3.00000e+00    1.00000e+00    6.07661e-08    3.91640e-07    5.00000e+00    2.22222e+00    5.55555e-01    5.55556e-01    5.55555e-01    5.55554e-01    1.38889e-01    1.38889e-01    1.38889e-01    1.38888e-01    2.80484e+00    9.46810e-01    7.01209e-01    5.19678e-01    7.01209e-01    2.36702e-01    1.29919e-01    1.29919e-01    2.36702e-01
    4.00000e+00    1.00000e+00    1.18829e-07    5.73017e-07    5.00000e+00    2.22222e+00    5.55555e-01    5.55556e-01    5.55555e-01    5.55554e-01    1.38889e-01    1.38889e-01    1.38888e-01    1.38888e-01    2.80484e+00    9.46810e-01    7.01209e-01    5.19678e-01    7.01209e-01    2.36702e-01    1.29919e-01    1.29919e-01    2.36702e-01
    5.00000e+00    1.00000e+00    2.96613e-08    2.65615e-07    5.00000e+00    2.22222e+00    5.55556e-01    5.55556e-01    5.55556e-01    5.55555e-01    1.38888e-01    1.38889e-01    1.38888e-01    1.38888e-01    2.80484e+00    9.46810e-01    7.01209e-01    5.19678e-01    7.01209e-01    2.36702e-01    1.29919e-01    1.29919e-01    2.36702e-01
    6.00000e+00    1.00000e+00   -4.94669e-08    1.63955e-07    5.00000e+00    2.22222e+00    5.55556e-01    5.55555e-01    5.55555e-01    5.55555e-01    1.38889e-01    1.38889e-01    1.38889e-01    1.38888e-01    2.80484e+00    9.46810e-01    7.01209e-01    5.19678e-01    7.01209e-01    2.36702e-01    1.29919e-01    1.29919e-01    2.36702e-01
    7.00000e+00    1.00000e+00    8.87549e-08    5.48209e-07    5.00000e+00    2.22222e+00    5.55555e-01    5.55556e-01    5.55555e-01    5.55554e-01    1.38889e-01    1.38889e-01    1.38889e-01    1.38888e-01    2.80484e+00    9.46810e-01    7.01209e-01    5.19678e-01    7.01209e-01    2.36702e-01    1.29919e-01    1.29919e-01    2.36702e-01
    8.00000e+00    1.00000e+00    5.73399e-08    2.27827e-07    5.00000e+00    2.22222e+00    5.55556e-01    5.55556e-01    5.55555e-01    5.55556e-01    1.38889e-01    1.38889e-01    1.38888e-01    1.38888e-01    2.80484e+00    9.46810e-01    7.01209e-01    5.19678e-01    7.01209e-01    2.36702e-01    1.29919e-01    1.29919e-01    2.36702e-01
    9.00000e+00    1.00000e+00   -2.96727e-08   -1.86857e-07    5.00000e+00    2.22222e+00    5.55556e-01    5.55555e-01    5.55556e-01    5.55556e-01    1.38888e-01    1.38889e-01    1.38888e-01    1.38889e-01    2.80484e+00    9.46810e-01    7.01209e-01    5.19678e-01    7.01209e-01    2.36702e-01    1.29919e-01    1.29919e-01    2.36702e-01
    1.00000e+01    1.00000e+00    8.26431e-08    2.73398e-07    5.00000e+00    2.22222e+00    5.55556e-01    5.55556e-01    5.55555e-01    5.55555e-01    1.38889e-01    1.38889e-01    1.38889e-01    1.38888e-01    2.80484e+00    9.46810e-01    7.01209e-01    5.19678e-01    7.01209e-01    2.36702e-01    1.29919e-01    1.29919e-01    2.36702e-01
    1.10000e+01    1.00000e+00    1.05201e-07    2.82463e-07    5.00000e+00    2.22222e+00    5.55556e-01    5.55557e-01    5.55555e-01    5.55556e-01    1.38889e-01    1.38889e-01    1.38889e-01    1.38888e-01    2.80484e+00    9.46810e-01    7.01209e-01    5.19678e-01    7.01209e-01    2.36702e-01    1.29919e-01    1.29919e-01    2.36702e-01
    1.20000e+01    1.00000e+00    4.00664e-08   -2.79012e-07    5.00000e+00    2.22222e+00    5.55556e-01    5.55555e-01    5.55555e-01    5.55557e-01    1.38888e-01    1.38889e-01    1.38888e-01    1.38888e-01    2.80484e+00    9.46810e-01    7.01209e-01    5.19678e-01    7.01209e-01    2.36702e-01    1.29919e-01    1.29919e-01    2.36702e-01
    1.30000e+01    1.00000e+00    9.07868e-08   -6.09006e-08    5.00000e+00    2.22222e+00    5.55556e-01    5.55556e-01    5.55555e-01    5.55556e-01    1.38889e-01    1.38889e-01    1.38889e-01    1.38889e-01    2.80484e+00    9.46810e-01    7.01209e-01    5.19678e-01    7.01209e-01    2.36702e-01    1.29919e-01    1.29919e-01    2.36702e-01
    1.40000e+01    1.00000e+00    1.53772e-07    3.64084e-07    5.00000e+00    2.22222e+00    5.55556e-01    5.55557e-01    5.55555e-01    5.55555e-01    1.38889e-01    1.38889e-01    1.38889e-01    1.38889e-01    2.80484e+00    9.46810e-01    7.01209e-01    5.19678e-01    7.01209e-01    2.36702e-01    1.29919e-01    1.29919e-01    2.36702e-01
    1.50000e+01    1.00000e+00    1.25020e-07   -1.39745e-07    5.00000e+00    2.22222e+00    5.55556e-01    5.55556e-01    5.55555e-01    5.55557e-01    1.38888e-01    1.38889e-01    1.38888e-01    1.38888e-01    2.80484e+00    9.46810e-01    7.01209e-01    5.19678e-01    7.01209e-01    2.36702e-01    1.29919e-01    1.29919e-01    2.36702e-01
    1.60000e+01    1.00000e+00    8.60293e-08   -3.31074e-07    5.00000e+00    2.22222e+00    5.55556e-01    5.55555e-01    5.55555e-01    5.55557e-01    1.38888e-01    1.38889e-01    1.38888e-01    1.38888e-01    2.80484e+00    9.46810e-01    7.01209e-01    5.19678e-01    7.01209e-01    2.36702e-01    1.29919e-01    1.29919e-01    2.36702e-01
    1.70000e+01    1.00000e+00    1.73566e-07    3.62164e-07    5.00000e+00    2.22222e+00    5.55556e-01    5.55556e-01    5.55555e-01    5.55555e-01    1.38889e-01    1.38889e-01    1.38889e-01    1.38889e-01    2.80484e+00    9.46810e-01    7.01209e-01    5.19678e-01    7.01209e-01    2.36702e-01    1.29919e-01    1.29919e-01    2.36702e-01
    1.80000e+01    1.00000e+00    1.90534e-07    1.28728e-07    5.00000e+00    2.22222e+00    5.55556e-01    5.55556e-01    5.55555e-01    5.55556e-01    1.38889e-01    1.38889e-01    1.38889e-01    1.38888e-01    2.80484e+00    9.46810e-01    7.01209e-01    5.19678e-01    7.01209e-01    2.36702e-01    1.29919e-01    1.29919e-01    2.36702e-01
    1.90000e+01    1.00000e+00    8.90475e-08   -4.85039e-07    5.00000e+00    2.22222e+00    5.55556e-01    5.55555e-01    5.55555e-01    5.55558e-01    1.38888e-01    1.38888e-01    1.38888e-01    1.38888e-01    2.80484e+00    9.46810e-01    7.01209e-01    5.19678e-01    7.01209e-01    2.36702e-01    1.29919e-01    1.29919e-01    2.36702e-01
    2.00000e+01    1.00000e+00    1.15301e-07    1.61937e-07    5.00000e+00    2.22222e+00    5.55556e-01    5.55556e-01    5.55555e-01    5.55556e-01    1.38889e-01    1.38889e-01    1.38889e-01    1.38889e-01    2.80484e+00    9.46810e-01    7.01209e-01    5.19678e-01    7.01209e-01    2.36702e-01    1.29919e-01    1.29919e-01    2.36702e-01
    2.10000e+01    1.00000e+00    1.76767e-07    3.95003e-07    5.00000e+00    2.22222e+00    5.55556e-01    5.55556e-01    5.55555e-01    5.55555e-01    1.38889e-01    1.38889e-01    1.38889e-01    1.38889e-01    2.80484e+00    9.46810e-01    7.01209e-01    5.19678e-01    7.01209e-01    2.36702e-01    1.29919e-01    1.29919e-01    2.36702e-01
    2.20000e+01    1.00000e+00    1.39571e-07   -3.82004e-07    5.00000e+00    2.22222e+00    5.55556e-01    5.55556e-01    5.55555e-01    5.55557e-01    1.38888e-01    1.38888e-01    1.38888e-01    1.38888e-01    2.80484e+00    9.46810e-01    7.01209e-01    5.19678e-01    7.01209e-01    2.36702e-01    1.29919e-01    1.29919e-01    2.36702e-01
    2.30000e+01    1.00000e+00    8.70124e-08   -1.32304e-07    5.00000e+00    2.22222e+00    5.55556e-01    5.55556e-01    5.55555e-01    5.55557e-01    1.38889e-01    1.38889e-01    1.38889e-01    1.38888e-01    2.80484e+00    9.46810e-01    7.01209e-01    5.19678e-01    7.01209e-01    2.36702e-01    1.29919e-01    1.29919e-01    2.36702e-01
    2.40000e+01    1.00000e+00    9.64389e-08    4.34516e-07    5.00000e+00    2.22222e+00    5.55556e-01    5.55556e-01    5.55555e-01    5.55554e-01    1.38889e-01    1.38889e-01    1.38889e-01    1.38889e-01    2.80484e+00    9.46810e-01    7.01209e-01    5.19678e-01    7.01209e-01    2.36702e-01    1.29919e-01    1.29919e-01    2.36702e-01
    2.50000e+01    1.00000e+00    1.06831e-07   -1.34022e-07    5.00000e+00    2.22222e+00    5.55556e-01    5.55556e-01    5.55555e-01    5.55556e-01    1.38889e-01    1.38888e-01    1.38889e-01    1.38889e-01    2.80484e+00    9.46810e-01    7.01209e-01    5.19678e-01    7.01209e-01    2.36702e-01    1.29919e-01    1.29919e-01    2.36702e-01
    2.60000e+01    1.00000e+00    6.83613e-08   -2.52555e-07    5.00000e+00    2.22222e+00    5.55556e-01    5.55556e-01    5.55556e-01    5.55557e-01    1.38889e-01    1.38888e-01    1.38889e-01    1.38888e-01    2.80484e+00    9.46810e-01    7.01209e-01    5.19678e-01    7.01209e-01    2.36702e-01    1.29919e-01    1.29919e-01    2.36702e-01
    2.70000e+01    1.00000e+00    9.65253e-09    2.79136e-07    5.00000e+00    2.22222e+00    5.55556e-01    5.55556e-01    5.55555e-01    5.55555e-01    1.38889e-01    1.38889e-01    1.38889e-01    1.38889e-01    2.80484e+00    9.46810e-01    7.01209e-01    5.19678e-01    7.01209e-01    2.36702e-01    1.29919e-01    1.29919e-01    2.36702e-01
    2.80000e+01    1.00000e+00    2.41233e-08    3.54307e-08    5.00000e+00    2.22222e+00    5.55556e-01    5.55556e-01    5.55556e-01    5.55555e-01    1.38889e-01    1.38889e-01    1.38889e-01    1.38889e-01    2.80484e+00    9.46810e-01    7.01209e-01    5.19678e-01    7.01209e-01    2.36702e-01    1.29919e-01    1.29919e-01    2.36702e-01
    2.90000e+01    1.00000e+00    3.77958e-08   -2.75209e-07    5.00000e+00    2.22222e+00    5.55556e-01    5.55556e-01    5.55556e-01    5.55557e-01    1.38889e-01    1.38888e-01    1.38889e-01    1.38889e-01    2.80484e+00    9.46810e-01    7.01209e-01    5.19678e-01    7.01209e-01    2.36702e-01    1.29919e-01    1.29919e-01    2.36702e-01
    3.00000e+01    1.00000e+00   -5.60647e-08    1.10996e-07    5.00000e+00    2.22222e+00    5.55556e-01    5.55556e-01    5.55555e-01    5.55556e-01    1.38889e-01    1.38889e-01    1.38889e-01    1.38888e-01    2.80484e+00    9.46810e-01    7.01209e-01    5.19678e-01    7.01209e-01    2.36702e-01    1.29919e-01    1.29919e-01    2.36702e-01
    3.10000e+01    1.00000e+00   -4.97746e-08    6.59261e-08    5.00000e+00    2.22222e+00    5.55555e-01    5.55556e-01    5.55556e-01    5.55555e-01    1.38889e-01    1.38889e-01    1.38889e-01    1.38889e-01    2.80484e+00    9.46810e-01    7.01209e-01    5.19678e-01    7.01209e-01    2.36702e-01    1.29919e-01    1.29919e-01    2.36702e-01
    3.20000e+01    1.00000e+00    3.34435e-08   -2.76636e-07    5.00000e+00    2.22222e+00    5.55556e-01    5.55556e-01    5.55556e-01    5.55556e-01    1.38889e-01    1.38889e-01    1.38889e-01    1.38889e-01    2.80484e+00    9.46810e-01    7.01209e-01    5.19678e-01    7.01209e-01    2.36702e-01    1.29919e-01    1.29919e-01    2.36702e-01
    3.30000e+01    1.00000e+00   -7.88042e-08   -6.83538e-08    5.00000e+00    2.22222e+00    5.55556e-01    5.55556e-01    5.55556e-01    5.55556e-01    1.38889e-01    1.38889e-01    1.38889e-01    1.38888e-01    2.80484e+00    9.46810e-01    7.01209e-01    5.19678e-01    7.01209e-01    2.36702e-01    1.29919e-01    1.29919e-01    2.36702e-01
    3.40000e+01    1.00000e+00   -7.60023e-08   -1.87087e-08    5.00000e+00    2.22222e+00    5.55555e-01    5.55556e-01    5.55556e-01    5.55556e-01    1.38889e-01    1.38889e-01    1.38889e-01    1.38889e-01    2.80484e+00    9.46810e-01    7.01209e-01    5.19678e-01    7.01209e-01    2.36702e-01    1.29919e-01    1.29919e-01    2.36702e-01
    3.50000e+01    1.00000e+00   -2.43402e-09   -2.23251e-07    5.00000e+00    2.22222e+00    5.55556e-01    5.55556e-01    5.55556e-01    5.55556e-01    1.38889e-01    1.38889e-01    1.38889e-01    1.38889e-01    2.80484e+00    9.46810e-01    7.01209e-01    5.19678e-01    7.01209e-01    2.36702e-01    1.29919e-01    1.29919e-01    2.36702e-01
    3.60000e+01    1.00000e+00   -5.71170e-08   -1.54939e-07    5.00000e+00    2.22222e+00    5.55556e-01    5.55556e-01    5.55556e-01    5.55556e-01    1.38889e-01    1.38889e-01    1.38889e-01    1.38889e-01    2.80484e+00    9.46810e-01    7.01209e-01    5.19678e-01    7.01209e-01    2.36702e-01    1.29919e-01    1.29919e-01    2.36702e-01
    3.70000e+01    1.00000e+00   -5.95347e-08   -7.89329e-08    5.00000e+00    2.22222e+00    5.55555e-01    5.55556e-01    5.55556e-01    5.55556e-01    1.38889e-01    1.38889e-01    1.38889e-01    1.38889e-01    2.80484e+00    9.46810e-01    7.01209e-01    5.19678e-01    7.01209e-01    2.36702e-01    1.29919e-01    1.29919e-01    2.36702e-01
    3.80000e+01    1.00000e+00    1.37239e-08   -1.35635e-07    5.00000e+00    2.22222e+00    5.55555e-01    5.55556e-01    5.55556e-01    5.55556e-01    1.38889e-01    1.38889e-01    1.38889e-01    1.38889e-01    2.80484e+00    9.46810e-01    7.01209e-01    5.19678e-01    7.01209e-01    2.36702e-01    1.29919e-01    1.29919e-01    2.36702e-01
    3.90000e+01    1.00000e+00    0.00000e+00    0.00000e+00    5.00000e+00    2.22222e+00    5.55556e-01    5.55555e-01    5.55556e-01    5.55556e-01    1.38889e-01    1.38889e-01    1.38889e-01    1.38889e-01    2.80484e+00    9.46810e-01    7.01209e-01    5.19678e-01    7.01209e-01    2.36702e-01    1.29919e-01    1.29919e-01    2.36702e-01
    0.00000e+00    2.00000e+00    0.00000e+00    0.00000e+00    4.99999e+00    2.22222e+00    5.55555e-01    5.55556e-01    5.55555e-01    5.55554e-01    1.38888e-01    1.38889e-01    1.38888e-01    1.38889e-01    2.80484e+00    9.46810e-01    7.01209e-01    5.19678e-01    7.01209e-01    2.36702e-01    1.29919e-01    1.29919e-01    2.36702e-01
    1.00000e+00    2.00000e+00    1.07934e-07    1.09890e-06    4.99999e+00    2.22222e+00    5.55555e-01    5.55556e-01    5.55555e-01    5.55552e-01    1.38889e-01    1.38889e-01    1.38888e-01    1.38888e-01    2.80484e+00    9.46810e-01    7.01209e-01    5.19678e-01    7.01209e-01    2.36702e-01    1.29919e-01    1.29919e-01    2.36702e-01
    2.00000e+00    2.00000e+00   -8.77093e-09    1.45951e-06    4.99999e+00    2.22222e+00    5.55555e-01    5.55556e-01    5.55555e-01    5.55550e-01    1.38889e-01    1.38889e-01    1.38888e-01    1.38888e-01    2.80484e+00    9.46810e-01    7.01209e-01    5.19678e-01    7.01209e-01    2.36702e-01    1.29919e-01    1.29919e-01    2.36702e-01
    3.00000e+00    2.00000e+00    5.62008e-08    1.78948e-06    4.99999e+00    2.22222e+00    5.55555e-01    5.55556e-01    5.55555e-01    5.55550e-01    1.38889e-01    1.38889e-01    1.38887e-01    1.38888e-01    2.80484e+00    9.46810e-01    7.01209e-01    5.19678e-01    7.01209e-01    2.36702e-01    1.29919e-01    1.29919e-01    2.36702e-01
    4.00000e+00    2.00000e+00   -1.26515e-07    1.69414e-06    4.99999e+00    2.22222e+00    5.55555e-01    5.55556e-01    5.55555e-01    5.55550e-01    1.38889e-01    1.38889e-01    1.38887e-01    1.38888e-01    2.80484e+00    9.46810e-01    7.01209e-01    5.19678e-01    7.01209e-01    2.36702e-01    1.29919e-01    1.29919e-01    2.36702e-01
    5.00000e+00    2.00000e+00   -1.56937e-07    1.56534e-06    4.99999e+00    2.22222e+00    5.55555e-01    5.55555e-01    5.55555e-01    5.55550e-01    1.38889e-01    1.38889e-01    1.38888e-01    1.38888e-01    2.80484e+00    9.46810e-01    7.01209e-01    5.19678e-01    7.01209e-01    2.36702e-01    1.29919e-01    1.29919e-01    2.36702e-01