TITLE="LBM output"
VARIABLES = "X", "Y", "U","V","density","f0","f1","f2","f3","f4","f5","f6","f7","f8","feq0","feq1","feq2","feq3","feq4","feq5","feq6","feq7","feq8",
ZONE T = "fluid", I=40, J=40, F=POINT
SOLUTIONTIME=489
    0.00000e+00    0.00000e+00    0.00000e+00    0.00000e+00    5.04111e+00    2.23964e+00    5.60165e-01    5.60156e-01    5.60165e-01    5.60156e-01    1.40442e-01    1.39977e-01    1.40442e-01    1.39977e-01    2.84600e+00    9.60705e-01    7.11500e-01    5.27304e-01    7.11500e-01    2.40176e-01    1.31826e-01    1.31826e-01    2.40176e-01
    1.00000e+00    0.00000e+00    0.00000e+00    0.00000e+00    5.04467e+00    2.24122e+00    5.59712e-01    5.61056e-01    5.60480e-01    5.61056e-01    1.40493e-01    1.40082e-01    1.40493e-01    1.40082e-01    2.84600e+00    9.60705e-01    7.11500e-01    5.27304e-01    7.11500e-01    2.40176e-01    1.31826e-01    1.31826e-01    2.40176e-01
    2.00000e+00    0.00000e+00    0.00000e+00    0.00000e+00    5.04532e+00    2.24155e+00    5.60759e-01    5.60847e-01    5.60249e-01    5.60847e-01    1.40595e-01    1.39939e-01    1.40595e-01    1.39939e-01    2.84600e+00    9.60705e-01    7.11500e-01    5.27304e-01    7.11500e-01    2.40176e-01    1.31826e-01    1.31826e-01    2.40176e-01
    3.00000e+00    0.00000e+00    0.00000e+00    0.00000e+00    5.04468e+00    2.24133e+00    5.60126e-01    5.60956e-01    5.60429e-01    5.60956e-01    1.40714e-01    1.39725e-01    1.40714e-01    1.39725e-01    2.84600e+00    9.60705e-01    7.11500e-01    5.27304e-01    7.11500e-01    2.40176e-01    1.31826e-01    1.31826e-01    2.40176e-01
    4.00000e+00    0.00000e+00    0.00000e+00    0.00000e+00    5.04540e+00    2.24171e+00    5.60493e-01    5.60880e-01    5.60404e-01    5.60880e-01    1.40804e-01    1.39708e-01    1.40804e-01    1.39708e-01    2.84600e+00    9.60705e-01    7.11500e-01    5.27304e-01    7.11500e-01    2.40176e-01    1.31826e-01    1.31826e-01    2.40176e-01
    5.00000e+00    0.00000e+00    0.00000e+00    0.00000e+00    5.04524e+00    2.24173e+00    5.60402e-01    5.60851e-01    5.60451e-01    5.60851e-01    1.40910e-01    1.39567e-01    1.40910e-01    1.39567e-01    2.84600e+00    9.60705e-01    7.11500e-01    5.27304e-01    7.11500e-01    2.40176e-01    1.31826e-01    1.31826e-01    2.40176e-01
    6.00000e+00    0.00000e+00    0.00000e+00    0.00000e+00    5.04547e+00    2.24191e+00    5.60470e-01    5.60837e-01    5.60492e-01    5.60837e-01    1.40988e-01    1.39470e-01    1.40988e-01    1.39470e-01    2.84600e+00    9.60705e-01    7.11500e-01    5.27304e-01    7.11500e-01    2.40176e-01    1.31826e-01    1.31826e-01    2.40176e-01
    7.00000e+00    0.00000e+00    0.00000e+00    0.00000e+00    5.04567e+00    2.24209e+00    5.60504e-01    5.60824e-01    5.60541e-01    5.60824e-01    1.41057e-01    1.39387e-01    1.41057e-01    1.39387e-01    2.84600e+00    9.60705e-01    7.11500e-01    5.27304e-01    7.11500e-01    2.40176e-01    1.31826e-01    1.31826e-01    2.40176e-01
    8.00000e+00    0.00000e+00    0.00000e+00    0.00000e+00    5.04598e+00    2.24230e+00    5.60552e-01    5.60825e-01    5.60602e-01    5.60825e-01    1.41115e-01    1.39319e-01    1.41115e-01    1.39319e-01    2.84600e+00    9.60705e-01    7.11500e-01    5.27304e-01    7.11500e-01    2.40176e-01    1.31826e-01    1.31826e-01    2.40176e-01
    9.00000e+00    0.00000e+00    0.00000e+00    0.00000e+00    5.04639e+00    2.24256e+00    5.60611e-01    5.60839e-01    5.60672e-01    5.60839e-01    1.41163e-01    1.39272e-01    1.41163e-01    1.39272e-01    2.84600e+00    9.60705e-01    7.11500e-01    5.27304e-01    7.11500e-01    2.40176e-01    1.31826e-01    1.31826e-01    2.40176e-01
    1.00000e+01    0.00000e+00    0.00000e+00    0.00000e+00    5.04692e+00    2.24286e+00    5.60676e-01    5.60871e-01    5.60756e-01    5.60871e-01    1.41204e-01    1.39241e-01    1.41204e-01    1.39241e-01    2.84600e+00    9.60705e-01    7.11500e-01    5.27304e-01    7.11500e-01    2.40176e-01    1.31826e-01    1.31826e-01    2.40176e-01
    1.10000e+01    0.00000e+00    0.00000e+00    0.00000e+00    5.04758e+00    2.24321e+00    5.60758e-01    5.60919e-01    5.60850e-01    5.60919e-01    1.41239e-01    1.39225e-01    1.41239e-01    1.39225e-01    2.84600e+00    9.60705e-01    7.11500e-01    5.27304e-01    7.11500e-01    2.40176e-01    1.31826e-01    1.31826e-01    2.40176e-01
    1.20000e+01    0.00000e+00    0.00000e+00    0.00000e+00    5.04837e+00    2.24360e+00    5.60847e-01    5.60986e-01    5.60956e-01    5.60986e-01    1.41269e-01    1.39224e-01    1.41269e-01    1.39224e-01    2.84600e+00    9.60705e-01    7.11500e-01    5.27304e-01    7.11500e-01    2.40176e-01    1.31826e-01    1.31826e-01    2.40176e-01
    1.30000e+01    0.00000e+00    0.00000e+00    0.00000e+00    5.04927e+00    2.24404e+00    5.60951e-01    5.61070e-01    5.61072e-01    5.61070e-01    1.41297e-01    1.39235e-01    1.41297e-01    1.39235e-01    2.84600e+00    9.60705e-01    7.11500e-01    5.27304e-01    7.11500e-01    2.40176e-01    1.31826e-01    1.31826e-01    2.40176e-01
    1.40000e+01    0.00000e+00    0.00000e+00    0.00000e+00    5.05028e+00    2.24452e+00    5.61062e-01    5.61172e-01    5.61197e-01    5.61172e-01    1.41325e-01    1.39257e-01    1.41325e-01    1.39257e-01    2.84600e+00    9.60705e-01    7.11500e-01    5.27304e-01    7.11500e-01    2.40176e-01    1.31826e-01    1.31826e-01    2.40176e-01
    1.50000e+01    0.00000e+00    0.00000e+00    0.00000e+00    5.05141e+00    2.24503e+00    5.61186e-01    5.61289e-01    5.61332e-01    5.61289e-01    1.41354e-01    1.39286e-01    1.41354e-01    1.39286e-01    2.84600e+00    9.60705e-01    7.11500e-01    5.27304e-01    7.11500e-01    2.40176e-01    1.31826e-01    1.31826e-01    2.40176e-01
    1.60000e+01    0.00000e+00    0.00000e+00    0.00000e+00    5.05263e+00    2.24558e+00    5.61316e-01    5.61422e-01    5.61475e-01    5.61422e-01    1.41385e-01    1.39323e-01    1.41385e-01    1.39323e-01    2.84600e+00    9.60705e-01    7.11500e-01    5.27304e-01    7.11500e-01    2.40176e-01    1.31826e-01    1.31826e-01    2.40176e-01
    1.70000e+01    0.00000e+00    0.00000e+00    0.00000e+00    5.05395e+00    2.24616e+00    5.61456e-01    5.61570e-01    5.61626e-01    5.61570e-01    1.41420e-01    1.39364e-01    1.41420e-01    1.39364e-01    2.84600e+00    9.60705e-01    7.11500e-01    5.27304e-01    7.11500e-01    2.40176e-01    1.31826e-01    1.31826e-01    2.40176e-01
    1.80000e+01    0.00000e+00    0.00000e+00    0.00000e+00    5.05537e+00    2.24678e+00    5.61605e-01    5.61732e-01    5.61786e-01    5.61732e-01    1.41462e-01    1.39407e-01    1.41462e-01    1.39407e-01    2.84600e+00    9.60705e-01    7.11500e-01    5.27304e-01    7.11500e-01    2.40176e-01    1.31826e-01    1.31826e-01    2.40176e-01
    1.90000e+01    0.00000e+00    0.00000e+00    0.00000e+00    5.05687e+00    2.24743e+00    5.61762e-01    5.61906e-01    5.61953e-01    5.61906e-01    1.41507e-01    1.39452e-01    1.41507e-01    1.39452e-01    2.84600e+00    9.60705e-01    7.11500e-01    5.27304e-01    7.11500e-01    2.40176e-01    1.31826e-01    1.31826e-01    2.40176e-01
    2.00000e+01    0.00000e+00    0.00000e+00    0.00000e+00    5.05847e+00    2.24811e+00    5.61928e-01    5.62092e-01    5.62129e-01    5.62092e-01    1.41558e-01    1.39498e-01    1.41558e-01    1.39498e-01    2.84600e+00    9.60705e-01    7.11500e-01    5.27304e-01    7.11500e-01    2.40176e-01    1.31826e-01    1.31826e-01    2.40176e-01
    2.10000e+01    0.00000e+00    0.00000e+00    0.00000e+00    5.06013e+00    2.24883e+00    5.62102e-01    5.62287e-01    5.62312e-01    5.62287e-01    1.41615e-01    1.39542e-01    1.41615e-01    1.39542e-01    2.84600e+00    9.60705e-01    7.11500e-01    5.27304e-01    7.11500e-01    2.40176e-01    1.31826e-01    1.31826e-01    2.40176e-01
    2.20000e+01    0.00000e+00    0.00000e+00    0.00000e+00    5.06185e+00    2.24957e+00    5.62284e-01    5.62487e-01    5.62500e-01    5.62487e-01    1.41673e-01    1.39587e-01    1.41673e-01    1.39587e-01    2.84600e+00    9.60705e-01    7.11500e-01    5.27304e-01    7.11500e-01    2.40176e-01    1.31826e-01    1.31826e-01    2.40176e-01
    2.30000e+01    0.00000e+00    0.00000e+00    0.00000e+00    5.06360e+00    2.25033e+00    5.62473e-01    5.62690e-01    5.62692e-01    5.62690e-01    1.41730e-01    1.39632e-01    1.41730e-01    1.39632e-01    2.84600e+00    9.60705e-01    7.11500e-01    5.27304e-01    7.11500e-01    2.40176e-01    1.31826e-01    1.31826e-01    2.40176e-01
    2.40000e+01    0.00000e+00    0.00000e+00    0.00000e+00    5.06536e+00    2.25110e+00    5.62666e-01    5.62891e-01    5.62883e-01    5.62891e-01    1.41785e-01    1.39677e-01    1.41785e-01    1.39677e-01    2.84600e+00    9.60705e-01    7.11500e-01    5.27304e-01    7.11500e-01    2.40176e-01    1.31826e-01    1.31826e-01    2.40176e-01
    2.50000e+01    0.00000e+00    0.00000e+00    0.00000e+00    5.06707e+00    2.25186e+00    5.62860e-01    5.63083e-01    5.63071e-01    5.63083e-01    1.41833e-01    1.39723e-01    1.41833e-01    1.39723e-01    2.84600e+00    9.60705e-01    7.11500e-01    5.27304e-01    7.11500e-01    2.40176e-01    1.31826e-01    1.31826e-01    2.40176e-01
    2.60000e+01    0.00000e+00    0.00000e+00    0.00000e+00    5.06870e+00    2.25260e+00    5.63050e-01    5.63262e-01    5.63247e-01    5.63262e-01    1.41870e-01    1.39771e-01    1.41870e-01    1.39771e-01    2.84600e+00    9.60705e-01    7.11500e-01    5.27304e-01    7.11500e-01    2.40176e-01    1.31826e-01    1.31826e-01    2.40176e-01
    2.70000e+01    0.00000e+00    0.00000e+00    0.00000e+00    5.07020e+00    2.25329e+00    5.63231e-01    5.63420e-01    5.63412e-01    5.63420e-01    1.41892e-01    1.39823e-01    1.41892e-01    1.39823e-01    2.84600e+00    9.60705e-01    7.11500e-01    5.27304e-01    7.11500e-01    2.40176e-01    1.31826e-01    1.31826e-01    2.40176e-01
    2.80000e+01    0.00000e+00    0.00000e+00    0.00000e+00    5.07153e+00    2.25392e+00    5.63400e-01    5.63556e-01    5.63554e-01    5.63556e-01    1.41897e-01    1.39877e-01    1.41897e-01    1.39877e-01    2.84600e+00    9.60705e-01    7.11500e-01    5.27304e-01    7.11500e-01    2.40176e-01    1.31826e-01    1.31826e-01    2.40176e-01
    2.90000e+01    0.00000e+00    0.00000e+00    0.00000e+00    5.07265e+00    2.25446e+00    5.63549e-01    5.63661e-01    5.63680e-01    5.63661e-01    1.41881e-01    1.39937e-01    1.41881e-01    1.39937e-01    2.84600e+00    9.60705e-01    7.11500e-01    5.27304e-01    7.11500e-01    2.40176e-01    1.31826e-01    1.31826e-01    2.40176e-01
    3.00000e+01    0.00000e+00    0.00000e+00    0.00000e+00    5.07353e+00    2.25491e+00    5.63678e-01    5.63738e-01    5.63774e-01    5.63738e-01    1.41844e-01    1.40003e-01    1.41844e-01    1.40003e-01    2.84600e+00    9.60705e-01    7.11500e-01    5.27304e-01    7.11500e-01    2.40176e-01    1.31826e-01    1.31826e-01    2.40176e-01
    3.10000e+01    0.00000e+00    0.00000e+00    0.00000e+00    5.07420e+00    2.25527e+00    5.63780e-01    5.63784e-01    5.63856e-01    5.63784e-01    1.41784e-01    1.40075e-01    1.41784e-01    1.40075e-01    2.84600e+00    9.60705e-01    7.11500e-01    5.27304e-01    7.11500e-01    2.40176e-01    1.31826e-01    1.31826e-01    2.40176e-01
    3.20000e+01    0.00000e+00    0.00000e+00    0.00000e+00    5.07462e+00    2.25553e+00    5.63862e-01    5.63804e-01    5.63900e-01    5.63804e-01    1.41704e-01    1.40155e-01    1.41704e-01    1.40155e-01    2.84600e+00    9.60705e-01    7.11500e-01    5.27304e-01    7.11500e-01    2.40176e-01    1.31826e-01    1.31826e-01    2.40176e-01
    3.30000e+01    0.00000e+00    0.00000e+00    0.00000e+00    5.07486e+00    2.25571e+00    5.63914e-01    5.63796e-01    5.63943e-01    5.63796e-01    1.41608e-01    1.40242e-01    1.41608e-01    1.40242e-01    2.84600e+00    9.60705e-01    7.11500e-01    5.27304e-01    7.11500e-01    2.40176e-01    1.31826e-01    1.31826e-01    2.40176e-01
    3.40000e+01    0.00000e+00    0.00000e+00    0.00000e+00    5.07499e+00    2.25584e+00    5.63955e-01    5.63783e-01    5.63967e-01    5.63783e-01    1.41495e-01    1.40337e-01    1.41495e-01    1.40337e-01    2.84600e+00    9.60705e-01    7.11500e-01    5.27304e-01    7.11500e-01    2.40176e-01    1.31826e-01    1.31826e-01    2.40176e-01
    3.50000e+01    0.00000e+00    0.00000e+00    0.00000e+00    5.07481e+00    2.25583e+00    5.63976e-01    5.63746e-01    5.63919e-01    5.63746e-01    1.41358e-01    1.40439e-01    1.41358e-01    1.40439e-01    2.84600e+00    9.60705e-01    7.11500e-01    5.27304e-01    7.11500e-01    2.40176e-01    1.31826e-01    1.31826e-01    2.40176e-01
    3.60000e+01    0.00000e+00    0.00000e+00    0.00000e+00    5.07513e+00    2.25602e+00    5.63958e-01    5.63693e-01    5.64116e-01    5.63693e-01    1.41285e-01    1.40539e-01    1.41285e-01    1.40539e-01    2.84600e+00    9.60705e-01    7.11500e-01    5.27304e-01    7.11500e-01    2.40176e-01    1.31826e-01    1.31826e-01    2.40176e-01
    3.70000e+01    0.00000e+00    0.00000e+00    0.00000e+00    5.07459e+00    2.25582e+00    5.64048e-01    5.63721e-01    5.63727e-01    5.63721e-01    1.41123e-01    1.40651e-01    1.41123e-01    1.40651e-01    2.84600e+00    9.60705e-01    7.11500e-01    5.27304e-01    7.11500e-01    2.40176e-01    1.31826e-01    1.31826e-01    2.40176e-01
    3.80000e+01    0.00000e+00    0.00000e+00    0.00000e+00    5.07484e+00    2.25597e+00    5.63898e-01    5.63580e-01    5.64339e-01    5.63580e-01    1.40989e-01    1.40747e-01    1.40989e-01    1.40747e-01    2.84600e+00    9.60705e-01    7.11500e-01    5.27304e-01    7.11500e-01    2.40176e-01    1.31826e-01    1.31826e-01    2.40176e-01
    3.90000e+01    0.00000e+00    0.00000e+00    0.00000e+00    5.07689e+00    2.25688e+00    5.64069e-01    5.64083e-01    5.64069e-01    5.64083e-01    1.41055e-01    1.40794e-01    1.41055e-01    1.40794e-01    2.84600e+00    9.60705e-01    7.11500e-01    5.27304e-01    7.11500e-01    2.40176e-01    1.31826e-01    1.31826e-01    2.40176e-01
    0.00000e+00    1.00000e+00    0.00000e+00    0.00000e+00    5.04474e+00    2.24124e+00    5.61083e-01    5.59719e-01    5.61083e-01    5.60508e-01    1.40479e-01    1.40071e-01    1.40479e-01    1.40071e-01    2.84600e+00    9.60705e-01    7.11500e-01    5.27304e-01    7.11500e-01    2.40176e-01    1.31826e-01    1.31826e-01    2.40176e-01
    1.00000e+00    1.00000e+00   -6.44867e-04   -5.54724e-04    5.04468e+00    2.24124e+00    5.59716e-01    5.59727e-01    5.61777e-01    5.61460e-01    1.39623e-01    1.40225e-01    1.40751e-01    1.40162e-01    2.84600e+00    9.60705e-01    7.11500e-01    5.27304e-01    7.11500e-01    2.40176e-01    1.31826e-01    1.31826e-01    2.40176e-01
    2.00000e+00    1.00000e+00   -9.73990e-04   -4.28904e-04    5.04497e+00    2.24141e+00    5.58860e-01    5.60029e-01    5.62254e-01    5.61362e-01    1.39745e-01    1.40368e-01    1.40920e-01    1.40024e-01    2.84600e+00    9.60705e-01    7.11500e-01    5.27304e-01    7.11500e-01    2.40176e-01    1.31826e-01    1.31826e-01    2.40176e-01
    3.00000e+00    1.00000e+00   -1.28790e-03   -4.13058e-04    5.04520e+00    2.24157e+00    5.58586e-01    5.59859e-01    5.62982e-01    5.61233e-01    1.39699e-01    1.40435e-01    1.41105e-01    1.39739e-01    2.84600e+00    9.60705e-01    7.11500e-01    5.27304e-01    7.11500e-01    2.40176e-01    1.31826e-01    1.31826e-01    2.40176e-01
    4.00000e+00    1.00000e+00   -1.66444e-03   -3.44379e-04    5.04534e+00    2.24169e+00    5.57923e-01    5.60077e-01    5.63582e-01    5.61155e-01    1.39576e-01    1.40550e-01    1.41275e-01    1.39510e-01    2.84600e+00    9.60705e-01    7.11500e-01    5.27304e-01    7.11500e-01    2.40176e-01    1.31826e-01    1.31826e-01    2.40176e-01
    5.00000e+00    1.00000e+00   -1.99569e-03   -2.91998e-04    5.04538e+00    2.24179e+00    5.57364e-01    5.60109e-01    5.64159e-01    5.61045e-01    1.39543e-01    1.40648e-01    1.41448e-01    1.39279e-01    2.84600e+00    9.60705e-01    7.11500e-01    5.27304e-01    7.11500e-01    2.40176e-01    1.31826e-01    1.31826e-01    2.40176e-01
    6.00000e+00    1.00000e+00   -2.29576e-03   -2.57134e-04    5.04553e+00    2.24193e+00    5.56854e-01    5.60199e-01    5.64662e-01    5.61015e-01    1.39462e-01    1.40733e-01    1.41590e-01    1.39086e-01    2.84600e+00    9.60705e-01    7.11500e-01    5.27304e-01    7.11500e-01    2.40176e-01    1.31826e-01    1.31826e-01    2.40176e-01
    7.00000e+00    1.00000e+00   -2.55176e-03   -2.13957e-04    5.04574e+00    2.24210e+00    5.56423e-01    5.60286e-01    5.65103e-01    5.60961e-01    1.39420e-01    1.40809e-01    1.41720e-01    1.38914e-01    2.84600e+00    9.60705e-01    7.11500e-01    5.27304e-01    7.11500e-01    2.40176e-01    1.31826e-01    1.31826e-01    2.40176e-01
    8.00000e+00    1.00000e+00   -2.76775e-03   -1.75545e-04    5.04603e+00    2.24230e+00    5.56075e-01    5.60380e-01    5.65484e-01    5.60930e-01    1.39386e-01    1.40874e-01    1.41832e-01    1.38763e-01    2.84600e+00    9.60705e-01    7.11500e-01    5.27304e-01    7.11500e-01    2.40176e-01    1.31826e-01    1.31826e-01    2.40176e-01
    9.00000e+00    1.00000e+00   -2.94397e-03   -1.40835e-04    5.04642e+00    2.24255e+00    5.55802e-01    5.60483e-01    5.65808e-01    5.60920e-01    1.39365e-01    1.40929e-01    1.41927e-01    1.38641e-01    2.84600e+00    9.60705e-01    7.11500e-01    5.27304e-01    7.11500e-01    2.40176e-01    1.31826e-01    1.31826e-01    2.40176e-01
    1.00000e+01    1.00000e+00   -3.08242e-03   -1.10358e-04    5.04694e+00    2.24284e+00    5.55610e-01    5.60591e-01    5.66084e-01    5.60929e-01    1.39358e-01    1.40978e-01    1.42009e-01    1.38546e-01    2.84600e+00    9.60705e-01    7.11500e-01    5.27304e-01    7.11500e-01    2.40176e-01    1.31826e-01    1.31826e-01    2.40176e-01
    1.10000e+01    1.00000e+00   -3.18759e-03   -8.37587e-05    5.04758e+00    2.24317e+00    5.55489e-01    5.60708e-01    5.66318e-01    5.60960e-01    1.39363e-01    1.41019e-01    1.42078e-01    1.38474e-01    2.84600e+00    9.60705e-01    7.11500e-01    5.27304e-01    7.11500e-01    2.40176e-01    1.31826e-01    1.31826e-01    2.40176e-01
    1.20000e+01    1.00000e+00   -3.26400e-03   -6.26540e-05    5.04835e+00    2.24356e+00    5.55433e-01    5.60830e-01    5.66520e-01    5.61014e-01    1.39376e-01    1.41056e-01    1.42138e-01    1.38427e-01    2.84600e+00    9.60705e-01    7.11500e-01    5.27304e-01    7.11500e-01    2.40176e-01    1.31826e-01    1.31826e-01    2.40176e-01
    1.30000e+01    1.00000e+00   -3.31650e-03   -4.60429e-05    5.04924e+00    2.24399e+00    5.55432e-01    5.60958e-01    5.66697e-01    5.61088e-01    1.39399e-01    1.41089e-01    1.42191e-01    1.38399e-01    2.84600e+00    9.60705e-01    7.11500e-01    5.27304e-01    7.11500e-01    2.40176e-01    1.31826e-01    1.31826e-01    2.40176e-01
    1.40000e+01    1.00000e+00   -3.34997e-03   -3.47199e-05    5.05025e+00    2.24446e+00    5.55479e-01    5.61091e-01    5.66856e-01    5.61185e-01    1.39429e-01    1.41120e-01    1.42241e-01    1.38390e-01    2.84600e+00    9.60705e-01    7.11500e-01    5.27304e-01    7.11500e-01    2.40176e-01    1.31826e-01    1.31826e-01    2.40176e-01
    1.50000e+01    1.00000e+00   -3.36936e-03   -2.90387e-05    5.05137e+00    2.24497e+00    5.55564e-01    5.61228e-01    5.67006e-01    5.61305e-01    1.39463e-01    1.41150e-01    1.42287e-01    1.38396e-01    2.84600e+00    9.60705e-01    7.11500e-01    5.27304e-01    7.11500e-01    2.40176e-01    1.31826e-01    1.31826e-01    2.40176e-01
    1.60000e+01    1.00000e+00   -3.37940e-03   -2.87249e-05    5.05260e+00    2.24552e+00    5.55678e-01    5.61368e-01    5.67154e-01    5.61445e-01    1.39500e-01    1.41181e-01    1.42334e-01    1.38416e-01    2.84600e+00    9.60705e-01    7.11500e-01    5.27304e-01    7.11500e-01    2.40176e-01    1.31826e-01    1.31826e-01    2.40176e-01
    1.70000e+01    1.00000e+00   -3.38423e-03   -3.28474e-05    5.05393e+00    2.24611e+00    5.55812e-01    5.61513e-01    5.67306e-01    5.61603e-01    1.39540e-01    1.41213e-01    1.42383e-01    1.38446e-01    2.84600e+00    9.60705e-01    7.11500e-01    5.27304e-01    7.11500e-01    2.40176e-01    1.31826e-01    1.31826e-01    2.40176e-01
    1.80000e+01    1.00000e+00   -3.38727e-03   -4.18379e-05    5.05535e+00    2.24673e+00    5.55961e-01    5.61662e-01    5.67466e-01    5.61783e-01    1.39580e-01    1.41248e-01    1.42435e-01    1.38484e-01    2.84600e+00    9.60705e-01    7.11500e-01    5.27304e-01    7.11500e-01    2.40176e-01    1.31826e-01    1.31826e-01    2.40176e-01
    1.90000e+01    1.00000e+00   -3.39089e-03   -5.48233e-05    5.05686e+00    2.24738e+00    5.56119e-01    5.61816e-01    5.67639e-01    5.61981e-01    1.39619e-01    1.41287e-01    1.42489e-01    1.38530e-01    2.84600e+00    9.60705e-01    7.11500e-01    5.27304e-01    7.11500e-01    2.40176e-01    1.31826e-01    1.31826e-01    2.40176e-01
    2.00000e+01    1.00000e+00   -3.39595e-03   -6.99642e-05    5.05845e+00    2.24807e+00    5.56282e-01    5.61976e-01    5.67822e-01    5.62191e-01    1.39657e-01    1.41330e-01    1.42546e-01    1.38581e-01    2.84600e+00    9.60705e-01    7.11500e-01    5.27304e-01    7.11500e-01    2.40176e-01    1.31826e-01    1.31826e-01    2.40176e-01
    2.10000e+01    1.00000e+00   -3.40184e-03   -8.66599e-05    5.06012e+00    2.24878e+00    5.56449e-01    5.62143e-01    5.68014e-01    5.62414e-01    1.39695e-01    1.41377e-01    1.42603e-01    1.38636e-01    2.84600e+00    9.60705e-01    7.11500e-01    5.27304e-01    7.11500e-01    2.40176e-01    1.31826e-01    1.31826e-01    2.40176e-01
    2.20000e+01    1.00000e+00   -3.40647e-03   -1.04136e-04    5.06183e+00    2.24953e+00    5.56621e-01    5.62317e-01    5.68207e-01    5.62647e-01    1.39731e-01    1.41426e-01    1.42658e-01    1.38696e-01    2.84600e+00    9.60705e-01    7.11500e-01    5.27304e-01    7.11500e-01    2.40176e-01    1.31826e-01    1.31826e-01    2.40176e-01
    2.30000e+01    1.00000e+00   -3.40619e-03   -1.19949e-04    5.06357e+00    2.25028e+00    5.56802e-01    5.62497e-01    5.68392e-01    5.62882e-01    1.39768e-01    1.41477e-01    1.42708e-01    1.38760e-01    2.84600e+00    9.60705e-01    7.11500e-01    5.27304e-01    7.11500e-01    2.40176e-01    1.31826e-01    1.31826e-01    2.40176e-01
    2.40000e+01    1.00000e+00   -3.39615e-03   -1.32910e-04    5.06530e+00    2.25105e+00    5.56995e-01    5.62682e-01    5.68557e-01    5.63112e-01    1.39807e-01    1.41527e-01    1.42749e-01    1.38829e-01    2.84600e+00    9.60705e-01    7.11500e-01    5.27304e-01    7.11500e-01    2.40176e-01    1.31826e-01    1.31826e-01    2.40176e-01
    2.50000e+01    1.00000e+00   -3.37075e-03   -1.42466e-04    5.06699e+00    2.25180e+00    5.57205e-01    5.62869e-01    5.68688e-01    5.63334e-01    1.39848e-01    1.41573e-01    1.42775e-01    1.38904e-01    2.84600e+00    9.60705e-01    7.11500e-01    5.27304e-01    7.11500e-01    2.40176e-01    1.31826e-01    1.31826e-01    2.40176e-01
    2.60000e+01    1.00000e+00   -3.32402e-03   -1.46913e-04    5.06860e+00    2.25252e+00    5.57439e-01    5.63055e-01    5.68770e-01    5.63539e-01    1.39892e-01    1.41613e-01    1.42781e-01    1.38985e-01    2.84600e+00    9.60705e-01    7.11500e-01    5.27304e-01    7.11500e-01    2.40176e-01    1.31826e-01    1.31826e-01    2.40176e-01
    2.70000e+01    1.00000e+00   -3.25007e-03   -1.44817e-04    5.07007e+00    2.25320e+00    5.57702e-01    5.63237e-01    5.68787e-01    5.63718e-01    1.39942e-01    1.41643e-01    1.42764e-01    1.39074e-01    2.84600e+00    9.60705e-01    7.11500e-01    5.27304e-01    7.11500e-01    2.40176e-01    1.31826e-01    1.31826e-01    2.40176e-01
    2.80000e+01    1.00000e+00   -3.14352e-03   -1.36853e-04    5.07137e+00    2.25382e+00    5.57999e-01    5.63407e-01    5.68728e-01    5.63868e-01    1.39997e-01    1.41661e-01    1.42720e-01    1.39171e-01    2.84600e+00    9.60705e-01    7.11500e-01    5.27304e-01    7.11500e-01    2.40176e-01    1.31826e-01    1.31826e-01    2.40176e-01
    2.90000e+01    1.00000e+00   -3.00005e-03   -1.21938e-04    5.07247e+00    2.25436e+00    5.58336e-01    5.63567e-01    5.68581e-01    5.63984e-01    1.40058e-01    1.41664e-01    1.42645e-01    1.39278e-01    2.84600e+00    9.60705e-01    7.11500e-01    5.27304e-01    7.11500e-01    2.40176e-01    1.31826e-01    1.31826e-01    2.40176e-01
    3.00000e+01    1.00000e+00   -2.81723e-03   -1.00368e-04    5.07335e+00    2.25480e+00    5.58718e-01    5.63707e-01    5.68343e-01    5.64059e-01    1.40126e-01    1.41652e-01    1.42538e-01    1.39397e-01    2.84600e+00    9.60705e-01    7.11500e-01    5.27304e-01    7.11500e-01    2.40176e-01    1.31826e-01    1.31826e-01    2.40176e-01
    3.10000e+01    1.00000e+00   -2.59372e-03   -7.28159e-05    5.07399e+00    2.25516e+00    5.59144e-01    5.63831e-01    5.68010e-01    5.64097e-01    1.40201e-01    1.41623e-01    1.42400e-01    1.39527e-01    2.84600e+00    9.60705e-01    7.11500e-01    5.27304e-01    7.11500e-01    2.40176e-01    1.31826e-01    1.31826e-01    2.40176e-01
    3.20000e+01    1.00000e+00   -2.33106e-03   -4.02257e-05    5.07443e+00    2.25543e+00    5.59618e-01    5.63931e-01    5.67592e-01    5.64096e-01    1.40285e-01    1.41577e-01    1.42232e-01    1.39669e-01    2.84600e+00    9.60705e-01    7.11500e-01    5.27304e-01    7.11500e-01    2.40176e-01    1.31826e-01    1.31826e-01    2.40176e-01
    3.30000e+01    1.00000e+00   -2.03391e-03   -1.52337e-06    5.07468e+00    2.25561e+00    5.60137e-01    5.64021e-01    5.67096e-01    5.64061e-01    1.40375e-01    1.41517e-01    1.42040e-01    1.39820e-01    2.84600e+00    9.60705e-01    7.11500e-01    5.27304e-01    7.11500e-01    2.40176e-01    1.31826e-01    1.31826e-01    2.40176e-01
    3.40000e+01    1.00000e+00   -1.70885e-03    3.45722e-05    5.07479e+00    2.25573e+00    5.60696e-01    5.64085e-01    5.66550e-01    5.64006e-01    1.40470e-01    1.41438e-01    1.41831e-01    1.39980e-01    2.84600e+00    9.60705e-01    7.11500e-01    5.27304e-01    7.11500e-01    2.40176e-01    1.31826e-01    1.31826e-01    2.40176e-01
    3.50000e+01    1.00000e+00   -1.36587e-03    7.86084e-05    5.07476e+00    2.25579e+00    5.61282e-01    5.64115e-01    5.65955e-01    5.63910e-01    1.40574e-01    1.41377e-01    1.41607e-01    1.40151e-01    2.84600e+00    9.60705e-01    7.11500e-01    5.27304e-01    7.11500e-01    2.40176e-01    1.31826e-01    1.31826e-01    2.40176e-01
    3.60000e+01    1.00000e+00   -1.00028e-03    1.30061e-04    5.07474e+00    2.25583e+00    5.61883e-01    5.64234e-01    5.65319e-01    5.63816e-01    1.40683e-01    1.41264e-01    1.41382e-01    1.40323e-01    2.84600e+00    9.60705e-01    7.11500e-01    5.27304e-01    7.11500e-01    2.40176e-01    1.31826e-01    1.31826e-01    2.40176e-01
    3.70000e+01    1.00000e+00   -6.82957e-04    1.60849e-04    5.07475e+00    2.25588e+00    5.62538e-01    5.64139e-01    5.64926e-01    5.63673e-01    1.40770e-01    1.41202e-01    1.41135e-01    1.40487e-01    2.84600e+00    9.60705e-01    7.11500e-01    5.27304e-01    7.11500e-01    2.40176e-01    1.31826e-01    1.31826e-01    2.40176e-01
    3.80000e+01    1.00000e+00   -3.98412e-04    2.68613e-04    5.07482e+00    2.25595e+00    5.63031e-01    5.64308e-01    5.64326e-01    5.63488e-01    1.40878e-01    1.41255e-01    1.40970e-01    1.40621e-01    2.84600e+00    9.60705e-01    7.11500e-01    5.27304e-01    7.11500e-01    2.40176e-01    1.31826e-01    1.31826e-01    2.40176e-01
    3.90000e+01    1.00000e+00    0.00000e+00    0.00000e+00    5.07475e+00    2.25593e+00    5.63540e-01    5.64328e-01    5.63540e-01    5.63856e-01    1.41005e-01    1.40771e-01    1.41005e-01    1.40771e-01    2.84600e+00    9.60705e-01    7.11500e-01    5.27304e-01    7.11500e-01    2.40176e-01    1.31826e-01    1.31826e-01    2.40176e-01
    0.00000e+00    2.00000e+00    0.00000e+00    0.00000e+00    5.04561e+00    2.24168e+00    5.60913e-01    5.60767e-01    5.60913e-01    5.60286e-01    1.40497e-01    1.40031e-01    1.40497e-01    1.40031e-01    2.84600e+00    9.60705e-01    7.11500e-01    5.27304e-01    7.11500e-01    2.40176e-01    1.31826e-01    1.31826e-01    2.40176e-01
    1.00000e+00    2.00000e+00   -5.79043e-04   -6.66670e-04    5.04514e+00    2.24148e+00    5.60028e-01    5.59138e-01    5.61899e-01    5.61496e-01    1.39764e-01    1.40281e-01    1.40792e-01    1.40259e-01    2.84600e+00    9.60705e-01    7.11500e-01    5.27304e-01    7.11500e-01    2.40176e-01    1.31826e-01    1.31826e-01    2.40176e-01
    2.00000e+00    2.00000e+00   -1.12347e-03   -6.44570e-04    5.04530e+00    2.24159e+00    5.58917e-01    5.59349e-01    5.62768e-01    5.61597e-01    1.39542e-01    1.40499e-01    1.40953e-01    1.40093e-01    2.84600e+00    9.60705e-01    7.11500e-01    5.27304e-01    7.11500e-01    2.40176e-01    1.31826e-01    1.31826e-01    2.40176e-01
    3.00000e+00    2.00000e+00   -1.61558e-03   -5.16977e-04    5.04549e+00    2.24172e+00    5.58205e-01    5.59595e-01    5.63627e-01    5.61353e-01    1.39316e-01    1.40756e-01    1.41106e-01    1.39816e-01    2.84600e+00    9.60705e-01    7.11500e-01    5.27304e-01    7.11500e-01    2.40176e-01    1.31826e-01    1.31826e-01    2.40176e-01
    4.00000e+00    2.00000e+00   -2.12247e-03   -4.37410e-04    5.04539e+00    2.24173e+00    5.57351e-01    5.59680e-01    5.64492e-01    5.61164e-01    1.39143e-01    1.40978e-01    1.41288e-01    1.39556e-01    2.84600e+00    9.60705e-01    7.11500e-01    5.27304e-01    7.11500e-01    2.40176e-01    1.31826e-01    1.31826e-01    2.40176e-01
    5.00000e+00    2.00000e+00   -2.59494e-03   -3.53172e-04    5.04550e+00    2.24185e+00    5.56517e-01    5.59842e-01    5.65273e-01    5.61063e-01    1.39018e-01    1.41179e-01    1.41467e-01    1.39291e-01    2.84600e+00    9.60705e-01    7.11500e-01    5.27304e-01    7.11500e-01    2.40176e-01    1.31826e-01    1.31826e-01    2.40176e-01