TITLE="LBM output"
VARIABLES = "X", "Y", "U","V","density","f0","f1","f2","f3","f4","f5","f6","f7","f8","feq0","feq1","feq2","feq3","feq4","feq5","feq6","feq7","feq8",
ZONE T = "fluid", I=40, J=40, F=POINT
SOLUTIONTIME=1543
    0.00000e+00    0.00000e+00    0.00000e+00    0.00000e+00    5.17428e+00    2.29978e+00    5.74917e-01    5.74917e-01    5.74917e-01    5.74917e-01    1.43681e-01    1.43736e-01    1.43681e-01    1.43736e-01    2.93486e+00    9.90701e-01    7.33714e-01    5.43768e-01    7.33714e-01    2.47675e-01    1.35942e-01    1.35942e-01    2.47675e-01
    1.00000e+00    0.00000e+00    0.00000e+00    0.00000e+00    5.17389e+00    2.29961e+00    5.74968e-01    5.74814e-01    5.74882e-01    5.74814e-01    1.43678e-01    1.43726e-01    1.43678e-01    1.43726e-01    2.93486e+00    9.90701e-01    7.33714e-01    5.43768e-01    7.33714e-01    2.47675e-01    1.35942e-01    1.35942e-01    2.47675e-01
    2.00000e+00    0.00000e+00    0.00000e+00    0.00000e+00    5.17384e+00    2.29958e+00    5.74849e-01    5.74838e-01    5.74912e-01    5.74838e-01    1.43680e-01    1.43731e-01    1.43680e-01    1.43731e-01    2.93486e+00    9.90701e-01    7.33714e-01    5.43768e-01    7.33714e-01    2.47675e-01    1.35942e-01    1.35942e-01    2.47675e-01
    3.00000e+00    0.00000e+00    0.00000e+00    0.00000e+00    5.17390e+00    2.29960e+00    5.74932e-01    5.74806e-01    5.74888e-01    5.74806e-01    1.43691e-01    1.43738e-01    1.43691e-01    1.43738e-01    2.93486e+00    9.90701e-01    7.33714e-01    5.43768e-01    7.33714e-01    2.47675e-01    1.35942e-01    1.35942e-01    2.47675e-01
    4.00000e+00    0.00000e+00    0.00000e+00    0.00000e+00    5.17384e+00    2.29958e+00    5.74876e-01    5.74821e-01    5.74904e-01    5.74821e-01    1.43719e-01    1.43702e-01    1.43719e-01    1.43702e-01    2.93486e+00    9.90701e-01    7.33714e-01    5.43768e-01    7.33714e-01    2.47675e-01    1.35942e-01    1.35942e-01    2.47675e-01
    5.00000e+00    0.00000e+00    0.00000e+00    0.00000e+00    5.17393e+00    2.29961e+00    5.74909e-01    5.74824e-01    5.74904e-01    5.74824e-01    1.43746e-01    1.43680e-01    1.43746e-01    1.43680e-01    2.93486e+00    9.90701e-01    7.33714e-01    5.43768e-01    7.33714e-01    2.47675e-01    1.35942e-01    1.35942e-01    2.47675e-01
    6.00000e+00    0.00000e+00    0.00000e+00    0.00000e+00    5.17399e+00    2.29964e+00    5.74899e-01    5.74836e-01    5.74918e-01    5.74836e-01    1.43786e-01    1.43646e-01    1.43786e-01    1.43646e-01    2.93486e+00    9.90701e-01    7.33714e-01    5.43768e-01    7.33714e-01    2.47675e-01    1.35942e-01    1.35942e-01    2.47675e-01
    7.00000e+00    0.00000e+00    0.00000e+00    0.00000e+00    5.17412e+00    2.29970e+00    5.74918e-01    5.74849e-01    5.74932e-01    5.74849e-01    1.43827e-01    1.43613e-01    1.43827e-01    1.43613e-01    2.93486e+00    9.90701e-01    7.33714e-01    5.43768e-01    7.33714e-01    2.47675e-01    1.35942e-01    1.35942e-01    2.47675e-01
    8.00000e+00    0.00000e+00    0.00000e+00    0.00000e+00    5.17429e+00    2.29977e+00    5.74928e-01    5.74870e-01    5.74954e-01    5.74870e-01    1.43875e-01    1.43577e-01    1.43875e-01    1.43577e-01    2.93486e+00    9.90701e-01    7.33714e-01    5.43768e-01    7.33714e-01    2.47675e-01    1.35942e-01    1.35942e-01    2.47675e-01
    9.00000e+00    0.00000e+00    0.00000e+00    0.00000e+00    5.17451e+00    2.29986e+00    5.74951e-01    5.74897e-01    5.74980e-01    5.74897e-01    1.43922e-01    1.43543e-01    1.43922e-01    1.43543e-01    2.93486e+00    9.90701e-01    7.33714e-01    5.43768e-01    7.33714e-01    2.47675e-01    1.35942e-01    1.35942e-01    2.47675e-01
    1.00000e+01    0.00000e+00    0.00000e+00    0.00000e+00    5.17479e+00    2.29997e+00    5.74975e-01    5.74931e-01    5.75013e-01    5.74931e-01    1.43973e-01    1.43508e-01    1.43973e-01    1.43508e-01    2.93486e+00    9.90701e-01    7.33714e-01    5.43768e-01    7.33714e-01    2.47675e-01    1.35942e-01    1.35942e-01    2.47675e-01
    1.10000e+01    0.00000e+00    0.00000e+00    0.00000e+00    5.17512e+00    2.30011e+00    5.75007e-01    5.74970e-01    5.75051e-01    5.74970e-01    1.44025e-01    1.43477e-01    1.44025e-01    1.43477e-01    2.93486e+00    9.90701e-01    7.33714e-01    5.43768e-01    7.33714e-01    2.47675e-01    1.35942e-01    1.35942e-01    2.47675e-01
    1.20000e+01    0.00000e+00    0.00000e+00    0.00000e+00    5.17550e+00    2.30028e+00    5.75044e-01    5.75016e-01    5.75096e-01    5.75016e-01    1.44077e-01    1.43448e-01    1.44077e-01    1.43448e-01    2.93486e+00    9.90701e-01    7.33714e-01    5.43768e-01    7.33714e-01    2.47675e-01    1.35942e-01    1.35942e-01    2.47675e-01
    1.30000e+01    0.00000e+00    0.00000e+00    0.00000e+00    5.17595e+00    2.30047e+00    5.75088e-01    5.75071e-01    5.75148e-01    5.75071e-01    1.44128e-01    1.43423e-01    1.44128e-01    1.43423e-01    2.93486e+00    9.90701e-01    7.33714e-01    5.43768e-01    7.33714e-01    2.47675e-01    1.35942e-01    1.35942e-01    2.47675e-01
    1.40000e+01    0.00000e+00    0.00000e+00    0.00000e+00    5.17646e+00    2.30069e+00    5.75139e-01    5.75132e-01    5.75206e-01    5.75132e-01    1.44179e-01    1.43402e-01    1.44179e-01    1.43402e-01    2.93486e+00    9.90701e-01    7.33714e-01    5.43768e-01    7.33714e-01    2.47675e-01    1.35942e-01    1.35942e-01    2.47675e-01
    1.50000e+01    0.00000e+00    0.00000e+00    0.00000e+00    5.17703e+00    2.30093e+00    5.75197e-01    5.75201e-01    5.75271e-01    5.75201e-01    1.44226e-01    1.43388e-01    1.44226e-01    1.43388e-01    2.93486e+00    9.90701e-01    7.33714e-01    5.43768e-01    7.33714e-01    2.47675e-01    1.35942e-01    1.35942e-01    2.47675e-01
    1.60000e+01    0.00000e+00    0.00000e+00    0.00000e+00    5.17766e+00    2.30120e+00    5.75260e-01    5.75277e-01    5.75342e-01    5.75277e-01    1.44268e-01    1.43382e-01    1.44268e-01    1.43382e-01    2.93486e+00    9.90701e-01    7.33714e-01    5.43768e-01    7.33714e-01    2.47675e-01    1.35942e-01    1.35942e-01    2.47675e-01
    1.70000e+01    0.00000e+00    0.00000e+00    0.00000e+00    5.17835e+00    2.30150e+00    5.75331e-01    5.75360e-01    5.75419e-01    5.75360e-01    1.44305e-01    1.43383e-01    1.44305e-01    1.43383e-01    2.93486e+00    9.90701e-01    7.33714e-01    5.43768e-01    7.33714e-01    2.47675e-01    1.35942e-01    1.35942e-01    2.47675e-01
    1.80000e+01    0.00000e+00    0.00000e+00    0.00000e+00    5.17908e+00    2.30181e+00    5.75407e-01    5.75449e-01    5.75500e-01    5.75449e-01    1.44336e-01    1.43394e-01    1.44336e-01    1.43394e-01    2.93486e+00    9.90701e-01    7.33714e-01    5.43768e-01    7.33714e-01    2.47675e-01    1.35942e-01    1.35942e-01    2.47675e-01
    1.90000e+01    0.00000e+00    0.00000e+00    0.00000e+00    5.17985e+00    2.30215e+00    5.75488e-01    5.75543e-01    5.75586e-01    5.75543e-01    1.44356e-01    1.43417e-01    1.44356e-01    1.43417e-01    2.93486e+00    9.90701e-01    7.33714e-01    5.43768e-01    7.33714e-01    2.47675e-01    1.35942e-01    1.35942e-01    2.47675e-01
    2.00000e+01    0.00000e+00    0.00000e+00    0.00000e+00    5.18065e+00    2.30249e+00    5.75573e-01    5.75641e-01    5.75674e-01    5.75641e-01    1.44366e-01    1.43450e-01    1.44366e-01    1.43450e-01    2.93486e+00    9.90701e-01    7.33714e-01    5.43768e-01    7.33714e-01    2.47675e-01    1.35942e-01    1.35942e-01    2.47675e-01
    2.10000e+01    0.00000e+00    0.00000e+00    0.00000e+00    5.18147e+00    2.30285e+00    5.75661e-01    5.75740e-01    5.75763e-01    5.75740e-01    1.44367e-01    1.43495e-01    1.44367e-01    1.43495e-01    2.93486e+00    9.90701e-01    7.33714e-01    5.43768e-01    7.33714e-01    2.47675e-01    1.35942e-01    1.35942e-01    2.47675e-01
    2.20000e+01    0.00000e+00    0.00000e+00    0.00000e+00    5.18230e+00    2.30320e+00    5.75750e-01    5.75841e-01    5.75852e-01    5.75841e-01    1.44356e-01    1.43551e-01    1.44356e-01    1.43551e-01    2.93486e+00    9.90701e-01    7.33714e-01    5.43768e-01    7.33714e-01    2.47675e-01    1.35942e-01    1.35942e-01    2.47675e-01
    2.30000e+01    0.00000e+00    0.00000e+00    0.00000e+00    5.18312e+00    2.30356e+00    5.75839e-01    5.75940e-01    5.75939e-01    5.75940e-01    1.44334e-01    1.43618e-01    1.44334e-01    1.43618e-01    2.93486e+00    9.90701e-01    7.33714e-01    5.43768e-01    7.33714e-01    2.47675e-01    1.35942e-01    1.35942e-01    2.47675e-01
    2.40000e+01    0.00000e+00    0.00000e+00    0.00000e+00    5.18391e+00    2.30390e+00    5.75927e-01    5.76036e-01    5.76023e-01    5.76036e-01    1.44304e-01    1.43692e-01    1.44304e-01    1.43692e-01    2.93486e+00    9.90701e-01    7.33714e-01    5.43768e-01    7.33714e-01    2.47675e-01    1.35942e-01    1.35942e-01    2.47675e-01
    2.50000e+01    0.00000e+00    0.00000e+00    0.00000e+00    5.18468e+00    2.30423e+00    5.76011e-01    5.76128e-01    5.76103e-01    5.76128e-01    1.44266e-01    1.43772e-01    1.44266e-01    1.43772e-01    2.93486e+00    9.90701e-01    7.33714e-01    5.43768e-01    7.33714e-01    2.47675e-01    1.35942e-01    1.35942e-01    2.47675e-01
    2.60000e+01    0.00000e+00    0.00000e+00    0.00000e+00    5.18539e+00    2.30454e+00    5.76092e-01    5.76213e-01    5.76177e-01    5.76213e-01    1.44223e-01    1.43856e-01    1.44223e-01    1.43856e-01    2.93486e+00    9.90701e-01    7.33714e-01    5.43768e-01    7.33714e-01    2.47675e-01    1.35942e-01    1.35942e-01    2.47675e-01
    2.70000e+01    0.00000e+00    0.00000e+00    0.00000e+00    5.18605e+00    2.30483e+00    5.76167e-01    5.76290e-01    5.76246e-01    5.76290e-01    1.44178e-01    1.43940e-01    1.44178e-01    1.43940e-01    2.93486e+00    9.90701e-01    7.33714e-01    5.43768e-01    7.33714e-01    2.47675e-01    1.35942e-01    1.35942e-01    2.47675e-01
    2.80000e+01    0.00000e+00    0.00000e+00    0.00000e+00    5.18666e+00    2.30509e+00    5.76236e-01    5.76361e-01    5.76305e-01    5.76361e-01    1.44135e-01    1.44019e-01    1.44135e-01    1.44019e-01    2.93486e+00    9.90701e-01    7.33714e-01    5.43768e-01    7.33714e-01    2.47675e-01    1.35942e-01    1.35942e-01    2.47675e-01
    2.90000e+01    0.00000e+00    0.00000e+00    0.00000e+00    5.18720e+00    2.30532e+00    5.76297e-01    5.76422e-01    5.76363e-01    5.76422e-01    1.44096e-01    1.44091e-01    1.44096e-01    1.44091e-01    2.93486e+00    9.90701e-01    7.33714e-01    5.43768e-01    7.33714e-01    2.47675e-01    1.35942e-01    1.35942e-01    2.47675e-01
    3.00000e+01    0.00000e+00    0.00000e+00    0.00000e+00    5.18767e+00    2.30552e+00    5.76354e-01    5.76476e-01    5.76404e-01    5.76476e-01    1.44064e-01    1.44154e-01    1.44064e-01    1.44154e-01    2.93486e+00    9.90701e-01    7.33714e-01    5.43768e-01    7.33714e-01    2.47675e-01    1.35942e-01    1.35942e-01    2.47675e-01
    3.10000e+01    0.00000e+00    0.00000e+00    0.00000e+00    5.18808e+00    2.30570e+00    5.76401e-01    5.76520e-01    5.76454e-01    5.76520e-01    1.44040e-01    1.44203e-01    1.44040e-01    1.44203e-01    2.93486e+00    9.90701e-01    7.33714e-01    5.43768e-01    7.33714e-01    2.47675e-01    1.35942e-01    1.35942e-01    2.47675e-01
    3.20000e+01    0.00000e+00    0.00000e+00    0.00000e+00    5.18843e+00    2.30585e+00    5.76444e-01    5.76561e-01    5.76475e-01    5.76561e-01    1.44031e-01    1.44238e-01    1.44031e-01    1.44238e-01    2.93486e+00    9.90701e-01    7.33714e-01    5.43768e-01    7.33714e-01    2.47675e-01    1.35942e-01    1.35942e-01    2.47675e-01
    3.30000e+01    0.00000e+00    0.00000e+00    0.00000e+00    5.18874e+00    2.30599e+00    5.76477e-01    5.76586e-01    5.76524e-01    5.76586e-01    1.44030e-01    1.44260e-01    1.44030e-01    1.44260e-01    2.93486e+00    9.90701e-01    7.33714e-01    5.43768e-01    7.33714e-01    2.47675e-01    1.35942e-01    1.35942e-01    2.47675e-01
    3.40000e+01    0.00000e+00    0.00000e+00    0.00000e+00    5.18896e+00    2.30608e+00    5.76511e-01    5.76617e-01    5.76517e-01    5.76617e-01    1.44043e-01    1.44267e-01    1.44043e-01    1.44267e-01    2.93486e+00    9.90701e-01    7.33714e-01    5.43768e-01    7.33714e-01    2.47675e-01    1.35942e-01    1.35942e-01    2.47675e-01
    3.50000e+01    0.00000e+00    0.00000e+00    0.00000e+00    5.18922e+00    2.30620e+00    5.76527e-01    5.76633e-01    5.76590e-01    5.76633e-01    1.44067e-01    1.44256e-01    1.44067e-01    1.44256e-01    2.93486e+00    9.90701e-01    7.33714e-01    5.43768e-01    7.33714e-01    2.47675e-01    1.35942e-01    1.35942e-01    2.47675e-01
    3.60000e+01    0.00000e+00    0.00000e+00    0.00000e+00    5.18930e+00    2.30622e+00    5.76566e-01    5.76679e-01    5.76515e-01    5.76679e-01    1.44074e-01    1.44243e-01    1.44074e-01    1.44243e-01    2.93486e+00    9.90701e-01    7.33714e-01    5.43768e-01    7.33714e-01    2.47675e-01    1.35942e-01    1.35942e-01    2.47675e-01
    3.70000e+01    0.00000e+00    0.00000e+00    0.00000e+00    5.18951e+00    2.30632e+00    5.76548e-01    5.76651e-01    5.76660e-01    5.76651e-01    1.44116e-01    1.44226e-01    1.44116e-01    1.44226e-01    2.93486e+00    9.90701e-01    7.33714e-01    5.43768e-01    7.33714e-01    2.47675e-01    1.35942e-01    1.35942e-01    2.47675e-01
    3.80000e+01    0.00000e+00    0.00000e+00    0.00000e+00    5.18958e+00    2.30635e+00    5.76606e-01    5.76714e-01    5.76497e-01    5.76714e-01    1.44150e-01    1.44200e-01    1.44150e-01    1.44200e-01    2.93486e+00    9.90701e-01    7.33714e-01    5.43768e-01    7.33714e-01    2.47675e-01    1.35942e-01    1.35942e-01    2.47675e-01
    3.90000e+01    0.00000e+00    0.00000e+00    0.00000e+00    5.18908e+00    2.30612e+00    5.76571e-01    5.76566e-01    5.76571e-01    5.76566e-01    1.44133e-01    1.44212e-01    1.44133e-01    1.44212e-01    2.93486e+00    9.90701e-01    7.33714e-01    5.43768e-01    7.33714e-01    2.47675e-01    1.35942e-01    1.35942e-01    2.47675e-01
    0.00000e+00    1.00000e+00    0.00000e+00    0.00000e+00    5.17390e+00    2.29961e+00    5.74804e-01    5.74968e-01    5.74804e-01    5.74884e-01    1.43691e-01    1.43725e-01    1.43691e-01    1.43725e-01    2.93486e+00    9.90701e-01    7.33714e-01    5.43768e-01    7.33714e-01    2.47675e-01    1.35942e-01    1.35942e-01    2.47675e-01
    1.00000e+00    1.00000e+00    6.97135e-05    7.24107e-05    5.17392e+00    2.29962e+00    5.74981e-01    5.74971e-01    5.74757e-01    5.74733e-01    1.43781e-01    1.43718e-01    1.43644e-01    1.43718e-01    2.93486e+00    9.90701e-01    7.33714e-01    5.43768e-01    7.33714e-01    2.47675e-01    1.35942e-01    1.35942e-01    2.47675e-01
    2.00000e+00    1.00000e+00    6.39577e-05    8.47293e-05    5.17390e+00    2.29961e+00    5.75062e-01    5.74941e-01    5.74832e-01    5.74651e-01    1.43763e-01    1.43714e-01    1.43639e-01    1.43691e-01    2.93486e+00    9.90701e-01    7.33714e-01    5.43768e-01    7.33714e-01    2.47675e-01    1.35942e-01    1.35942e-01    2.47675e-01
    3.00000e+00    1.00000e+00    9.78335e-06    1.13159e-04    5.17389e+00    2.29960e+00    5.74978e-01    5.74977e-01    5.74942e-01    5.74575e-01    1.43759e-01    1.43740e-01    1.43660e-01    1.43656e-01    2.93486e+00    9.90701e-01    7.33714e-01    5.43768e-01    7.33714e-01    2.47675e-01    1.35942e-01    1.35942e-01    2.47675e-01
    4.00000e+00    1.00000e+00   -7.26663e-05    1.23660e-04    5.17390e+00    2.29961e+00    5.74877e-01    5.74954e-01    5.75124e-01    5.74518e-01    1.43754e-01    1.43760e-01    1.43717e-01    1.43594e-01    2.93486e+00    9.90701e-01    7.33714e-01    5.43768e-01    7.33714e-01    2.47675e-01    1.35942e-01    1.35942e-01    2.47675e-01
    5.00000e+00    1.00000e+00   -1.84356e-04    1.32678e-04    5.17397e+00    2.29963e+00    5.74708e-01    5.74967e-01    5.75341e-01    5.74492e-01    1.43729e-01    1.43790e-01    1.43784e-01    1.43523e-01    2.93486e+00    9.90701e-01    7.33714e-01    5.43768e-01    7.33714e-01    2.47675e-01    1.35942e-01    1.35942e-01    2.47675e-01
    6.00000e+00    1.00000e+00   -3.16355e-04    1.41099e-04    5.17405e+00    2.29967e+00    5.74511e-01    5.74970e-01    5.75599e-01    5.74464e-01    1.43713e-01    1.43821e-01    1.43876e-01    1.43434e-01    2.93486e+00    9.90701e-01    7.33714e-01    5.43768e-01    7.33714e-01    2.47675e-01    1.35942e-01    1.35942e-01    2.47675e-01
    7.00000e+00    1.00000e+00   -4.64138e-04    1.43749e-04    5.17418e+00    2.29972e+00    5.74279e-01    5.74984e-01    5.75877e-01    5.74468e-01    1.43685e-01    1.43856e-01    1.43974e-01    1.43341e-01    2.93486e+00    9.90701e-01    7.33714e-01    5.43768e-01    7.33714e-01    2.47675e-01    1.35942e-01    1.35942e-01    2.47675e-01
    8.00000e+00    1.00000e+00   -6.19754e-04    1.43467e-04    5.17436e+00    2.29979e+00    5.74035e-01    5.74999e-01    5.76170e-01    5.74482e-01    1.43659e-01    1.43893e-01    1.44083e-01    1.43244e-01    2.93486e+00    9.90701e-01    7.33714e-01    5.43768e-01    7.33714e-01    2.47675e-01    1.35942e-01    1.35942e-01    2.47675e-01
    9.00000e+00    1.00000e+00   -7.79137e-04    1.40300e-04    5.17458e+00    2.29989e+00    5.73785e-01    5.75020e-01    5.76471e-01    5.74513e-01    1.43631e-01    1.43932e-01    1.44194e-01    1.43149e-01    2.93486e+00    9.90701e-01    7.33714e-01    5.43768e-01    7.33714e-01    2.47675e-01    1.35942e-01    1.35942e-01    2.47675e-01
    1.00000e+01    1.00000e+00   -9.39206e-04    1.35886e-04    5.17486e+00    2.30000e+00    5.73538e-01    5.75045e-01    5.76776e-01    5.74553e-01    1.43605e-01    1.43971e-01    1.44311e-01    1.43055e-01    2.93486e+00    9.90701e-01    7.33714e-01    5.43768e-01    7.33714e-01    2.47675e-01    1.35942e-01    1.35942e-01    2.47675e-01
    1.10000e+01    1.00000e+00   -1.09675e-03    1.28882e-04    5.17518e+00    2.30014e+00    5.73296e-01    5.75077e-01    5.77079e-01    5.74609e-01    1.43579e-01    1.44012e-01    1.44426e-01    1.42966e-01    2.93486e+00    9.90701e-01    7.33714e-01    5.43768e-01    7.33714e-01    2.47675e-01    1.35942e-01    1.35942e-01    2.47675e-01
    1.20000e+01    1.00000e+00   -1.24839e-03    1.19606e-04    5.17557e+00    2.30030e+00    5.73069e-01    5.75114e-01    5.77376e-01    5.74678e-01    1.43555e-01    1.44052e-01    1.44540e-01    1.42883e-01    2.93486e+00    9.90701e-01    7.33714e-01    5.43768e-01    7.33714e-01    2.47675e-01    1.35942e-01    1.35942e-01    2.47675e-01
    1.30000e+01    1.00000e+00   -1.39061e-03    1.07757e-04    5.17602e+00    2.30049e+00    5.72860e-01    5.75157e-01    5.77659e-01    5.74763e-01    1.43533e-01    1.44091e-01    1.44650e-01    1.42810e-01    2.93486e+00    9.90701e-01    7.33714e-01    5.43768e-01    7.33714e-01    2.47675e-01    1.35942e-01    1.35942e-01    2.47675e-01
    1.40000e+01    1.00000e+00   -1.51917e-03    9.36135e-05    5.17652e+00    2.30071e+00    5.72677e-01    5.75206e-01    5.77921e-01    5.74862e-01    1.43515e-01    1.44129e-01    1.44755e-01    1.42748e-01    2.93486e+00    9.90701e-01    7.33714e-01    5.43768e-01    7.33714e-01    2.47675e-01    1.35942e-01    1.35942e-01    2.47675e-01
    1.50000e+01    1.00000e+00   -1.62953e-03    7.58969e-05    5.17708e+00    2.30095e+00    5.72527e-01    5.75261e-01    5.78153e-01    5.74981e-01    1.43501e-01    1.44163e-01    1.44850e-01    1.42702e-01    2.93486e+00    9.90701e-01    7.33714e-01    5.43768e-01    7.33714e-01    2.47675e-01    1.35942e-01    1.35942e-01    2.47675e-01
    1.60000e+01    1.00000e+00   -1.71678e-03    5.52483e-05    5.17771e+00    2.30121e+00    5.72419e-01    5.75322e-01    5.78347e-01    5.75116e-01    1.43492e-01    1.44194e-01    1.44932e-01    1.42673e-01    2.93486e+00    9.90701e-01    7.33714e-01    5.43768e-01    7.33714e-01    2.47675e-01    1.35942e-01    1.35942e-01    2.47675e-01
    1.70000e+01    1.00000e+00   -1.77586e-03    3.20043e-05    5.17838e+00    2.30150e+00    5.72359e-01    5.75388e-01    5.78492e-01    5.75265e-01    1.43489e-01    1.44220e-01    1.44999e-01    1.42666e-01    2.93486e+00    9.90701e-01    7.33714e-01    5.43768e-01    7.33714e-01    2.47675e-01    1.35942e-01    1.35942e-01    2.47675e-01
    1.80000e+01    1.00000e+00   -1.80213e-03    5.92933e-06    5.17910e+00    2.30181e+00    5.72357e-01    5.75458e-01    5.78582e-01    5.75431e-01    1.43494e-01    1.44238e-01    1.45047e-01    1.42682e-01    2.93486e+00    9.90701e-01    7.33714e-01    5.43768e-01    7.33714e-01    2.47675e-01    1.35942e-01    1.35942e-01    2.47675e-01
    1.90000e+01    1.00000e+00   -1.79168e-03   -2.26916e-05    5.17986e+00    2.30214e+00    5.72419e-01    5.75533e-01    5.78609e-01    5.75609e-01    1.43506e-01    1.44250e-01    1.45072e-01    1.42725e-01    2.93486e+00    9.90701e-01    7.33714e-01    5.43768e-01    7.33714e-01    2.47675e-01    1.35942e-01    1.35942e-01    2.47675e-01
    2.00000e+01    1.00000e+00   -1.74158e-03   -5.18693e-05    5.18065e+00    2.30248e+00    5.72551e-01    5.75610e-01    5.78567e-01    5.75793e-01    1.43528e-01    1.44254e-01    1.45073e-01    1.42794e-01    2.93486e+00    9.90701e-01    7.33714e-01    5.43768e-01    7.33714e-01    2.47675e-01    1.35942e-01    1.35942e-01    2.47675e-01
    2.10000e+01    1.00000e+00   -1.65071e-03   -8.13179e-05    5.18145e+00    2.30283e+00    5.72754e-01    5.75689e-01    5.78458e-01    5.75980e-01    1.43558e-01    1.44249e-01    1.45049e-01    1.42890e-01    2.93486e+00    9.90701e-01    7.33714e-01    5.43768e-01    7.33714e-01    2.47675e-01    1.35942e-01    1.35942e-01    2.47675e-01
    2.20000e+01    1.00000e+00   -1.52000e-03   -1.10343e-04    5.18226e+00    2.30318e+00    5.73029e-01    5.75769e-01    5.78281e-01    5.76166e-01    1.43598e-01    1.44236e-01    1.44998e-01    1.43011e-01    2.93486e+00    9.90701e-01    7.33714e-01    5.43768e-01    7.33714e-01    2.47675e-01    1.35942e-01    1.35942e-01    2.47675e-01
    2.30000e+01    1.00000e+00   -1.35244e-03   -1.36445e-04    5.18307e+00    2.30353e+00    5.73371e-01    5.75848e-01    5.78043e-01    5.76341e-01    1.43646e-01    1.44216e-01    1.44922e-01    1.43155e-01    2.93486e+00    9.90701e-01    7.33714e-01    5.43768e-01    7.33714e-01    2.47675e-01    1.35942e-01    1.35942e-01    2.47675e-01
    2.40000e+01    1.00000e+00   -1.15359e-03   -1.58428e-04    5.18385e+00    2.30387e+00    5.73772e-01    5.75926e-01    5.77756e-01    5.76499e-01    1.43702e-01    1.44190e-01    1.44824e-01    1.43317e-01    2.93486e+00    9.90701e-01    7.33714e-01    5.43768e-01    7.33714e-01    2.47675e-01    1.35942e-01    1.35942e-01    2.47675e-01
    2.50000e+01    1.00000e+00   -9.31350e-04   -1.76050e-04    5.18460e+00    2.30419e+00    5.74218e-01    5.76000e-01    5.77434e-01    5.76638e-01    1.43764e-01    1.44159e-01    1.44708e-01    1.43490e-01    2.93486e+00    9.90701e-01    7.33714e-01    5.43768e-01    7.33714e-01    2.47675e-01    1.35942e-01    1.35942e-01    2.47675e-01
    2.60000e+01    1.00000e+00   -6.95465e-04   -1.87470e-04    5.18531e+00    2.30450e+00    5.74694e-01    5.76071e-01    5.77094e-01    5.76750e-01    1.43830e-01    1.44126e-01    1.44580e-01    1.43669e-01    2.93486e+00    9.90701e-01    7.33714e-01    5.43768e-01    7.33714e-01    2.47675e-01    1.35942e-01    1.35942e-01    2.47675e-01
    2.70000e+01    1.00000e+00   -4.57140e-04   -1.91592e-04    5.18597e+00    2.30479e+00    5.75181e-01    5.76138e-01    5.76756e-01    5.76831e-01    1.43898e-01    1.44093e-01    1.44446e-01    1.43846e-01    2.93486e+00    9.90701e-01    7.33714e-01    5.43768e-01    7.33714e-01    2.47675e-01    1.35942e-01    1.35942e-01    2.47675e-01
    2.80000e+01    1.00000e+00   -2.28228e-04   -1.89593e-04    5.18658e+00    2.30505e+00    5.75656e-01    5.76198e-01    5.76440e-01    5.76882e-01    1.43964e-01    1.44063e-01    1.44314e-01    1.44013e-01    2.93486e+00    9.90701e-01    7.33714e-01    5.43768e-01    7.33714e-01    2.47675e-01    1.35942e-01    1.35942e-01    2.47675e-01
    2.90000e+01    1.00000e+00   -2.02538e-05   -1.80830e-04    5.18712e+00    2.30528e+00    5.76101e-01    5.76254e-01    5.76164e-01    5.76905e-01    1.44026e-01    1.44038e-01    1.44190e-01    1.44161e-01    2.93486e+00    9.90701e-01    7.33714e-01    5.43768e-01    7.33714e-01    2.47675e-01    1.35942e-01    1.35942e-01    2.47675e-01
    3.00000e+01    1.00000e+00    1.56035e-04   -1.66340e-04    5.18760e+00    2.30549e+00    5.76493e-01    5.76303e-01    5.75947e-01    5.76898e-01    1.44082e-01    1.44020e-01    1.44084e-01    1.44285e-01    2.93486e+00    9.90701e-01    7.33714e-01    5.43768e-01    7.33714e-01    2.47675e-01    1.35942e-01    1.35942e-01    2.47675e-01
    3.10000e+01    1.00000e+00    2.91978e-04   -1.46999e-04    5.18803e+00    2.30567e+00    5.76817e-01    5.76348e-01    5.75801e-01    5.76870e-01    1.44128e-01    1.44010e-01    1.43999e-01    1.44380e-01    2.93486e+00    9.90701e-01    7.33714e-01    5.43768e-01    7.33714e-01    2.47675e-01    1.35942e-01    1.35942e-01    2.47675e-01
    3.20000e+01    1.00000e+00    3.82520e-04   -1.26485e-04    5.18839e+00    2.30583e+00    5.77059e-01    5.76383e-01    5.75729e-01    5.76828e-01    1.44166e-01    1.44009e-01    1.43945e-01    1.44442e-01    2.93486e+00    9.90701e-01    7.33714e-01    5.43768e-01    7.33714e-01    2.47675e-01    1.35942e-01    1.35942e-01    2.47675e-01
    3.30000e+01    1.00000e+00    4.25081e-04   -1.02668e-04    5.18870e+00    2.30597e+00    5.77213e-01    5.76422e-01    5.75738e-01    5.76778e-01    1.44189e-01    1.44015e-01    1.43912e-01    1.44469e-01    2.93486e+00    9.90701e-01    7.33714e-01    5.43768e-01    7.33714e-01    2.47675e-01    1.35942e-01    1.35942e-01    2.47675e-01
    3.40000e+01    1.00000e+00    4.17260e-04   -7.95766e-05    5.18896e+00    2.30608e+00    5.77277e-01    5.76441e-01    5.75828e-01    5.76713e-01    1.44203e-01    1.44038e-01    1.43915e-01    1.44466e-01    2.93486e+00    9.90701e-01    7.33714e-01    5.43768e-01    7.33714e-01    2.47675e-01    1.35942e-01    1.35942e-01    2.47675e-01
    3.50000e+01    1.00000e+00    3.68052e-04   -6.22276e-05    5.18919e+00    2.30618e+00    5.77246e-01    5.76480e-01    5.75970e-01    5.76681e-01    1.44203e-01    1.44053e-01    1.43947e-01    1.44431e-01    2.93486e+00    9.90701e-01    7.33714e-01    5.43768e-01    7.33714e-01    2.47675e-01    1.35942e-01    1.35942e-01    2.47675e-01
    3.60000e+01    1.00000e+00    2.86580e-04   -6.35442e-05    5.18935e+00    2.30625e+00    5.77156e-01    5.76455e-01    5.76159e-01    5.76668e-01    1.44196e-01    1.44078e-01    1.44009e-01    1.44382e-01    2.93486e+00    9.90701e-01    7.33714e-01    5.43768e-01    7.33714e-01    2.47675e-01    1.35942e-01    1.35942e-01    2.47675e-01
    3.70000e+01    1.00000e+00    2.03434e-04   -4.79337e-05    5.18946e+00    2.30630e+00    5.76999e-01    5.76522e-01    5.76282e-01    5.76668e-01    1.44193e-01    1.44103e-01    1.44075e-01    1.44323e-01    2.93486e+00    9.90701e-01    7.33714e-01    5.43768e-01    7.33714e-01    2.47675e-01    1.35942e-01    1.35942e-01    2.47675e-01
    3.80000e+01    1.00000e+00    1.18184e-04   -7.71586e-05    5.18953e+00    2.30633e+00    5.76881e-01    5.76483e-01    5.76484e-01    5.76723e-01    1.44169e-01    1.44068e-01    1.44141e-01    1.44256e-01    2.93486e+00    9.90701e-01    7.33714e-01    5.43768e-01    7.33714e-01    2.47675e-01    1.35942e-01    1.35942e-01    2.47675e-01
    3.90000e+01    1.00000e+00    0.00000e+00    0.00000e+00    5.18960e+00    2.30636e+00    5.76718e-01    5.76501e-01    5.76718e-01    5.76617e-01    1.44144e-01    1.44201e-01    1.44144e-01    1.44201e-01    2.93486e+00    9.90701e-01    7.33714e-01    5.43768e-01    7.33714e-01    2.47675e-01    1.35942e-01    1.35942e-01    2.47675e-01
    0.00000e+00    2.00000e+00    0.00000e+00    0.00000e+00    5.17389e+00    2.29960e+00    5.74841e-01    5.74850e-01    5.74841e-01    5.74921e-01    1.43681e-01    1.43735e-01    1.43681e-01    1.43735e-01    2.93486e+00    9.90701e-01    7.33714e-01    5.43768e-01    7.33714e-01    2.47675e-01    1.35942e-01    1.35942e-01    2.47675e-01
    1.00000e+00    2.00000e+00    4.38276e-05    1.18747e-04    5.17393e+00    2.29962e+00    5.74949e-01    5.75077e-01    5.74814e-01    5.74656e-01    1.43753e-01    1.43749e-01    1.43610e-01    1.43699e-01    2.93486e+00    9.90701e-01    7.33714e-01    5.43768e-01    7.33714e-01    2.47675e-01    1.35942e-01    1.35942e-01    2.47675e-01
    2.00000e+00    2.00000e+00    1.77382e-05    2.10804e-04    5.17391e+00    2.29961e+00    5.75009e-01    5.75134e-01    5.74943e-01    5.74396e-01    1.43794e-01    1.43791e-01    1.43604e-01    1.43628e-01    2.93486e+00    9.90701e-01    7.33714e-01    5.43768e-01    7.33714e-01    2.47675e-01    1.35942e-01    1.35942e-01    2.47675e-01
    3.00000e+00    2.00000e+00   -8.99808e-05    2.84694e-04    5.17391e+00    2.29961e+00    5.74880e-01    5.75190e-01    5.75197e-01    5.74203e-01    1.43812e-01    1.43847e-01    1.43643e-01    1.43529e-01    2.93486e+00    9.90701e-01    7.33714e-01    5.43768e-01    7.33714e-01    2.47675e-01    1.35942e-01    1.35942e-01    2.47675e-01
    4.00000e+00    2.00000e+00   -2.59877e-04    3.44621e-04    5.17396e+00    2.29963e+00    5.74652e-01    5.75242e-01    5.75546e-01    5.74051e-01    1.43796e-01    1.43919e-01    1.43725e-01    1.43398e-01    2.93486e+00    9.90701e-01    7.33714e-01    5.43768e-01    7.33714e-01    2.47675e-01    1.35942e-01    1.35942e-01    2.47675e-01
    5.00000e+00    2.00000e+00   -4.82092e-04    3.83434e-04    5.17401e+00    2.29965e+00    5.74320e-01    5.75271e-01    5.75981e-01    5.73943e-01    1.43746e-01    1.44005e-01    1.43835e-01    1.43261e-01    2.93486e+00    9.90701e-01    7.33714e-01    5.43768e-01    7.33714e-01    2.47675e-01    1.35942e-01    1.35942e-01    2.47675e-01