TITLE="LBM output"
VARIABLES = "X", "Y", "U","V","density","f0","f1","f2","f3","f4","f5","f6","f7","f8","feq0","feq1","feq2","feq3","feq4","feq5","feq6","feq7","feq8",
ZONE T = "fluid", I=40, J=40, F=POINT
SOLUTIONTIME=367
    0.00000e+00    0.00000e+00    0.00000e+00    0.00000e+00    5.06414e+00    2.25085e+00    5.62667e-01    5.62667e-01    5.62667e-01    5.62667e-01    1.40632e-01    1.40678e-01    1.40632e-01    1.40678e-01    2.83104e+00    9.55655e-01    7.07760e-01    5.24533e-01    7.07760e-01    2.38914e-01    1.31133e-01    1.31133e-01    2.38914e-01
    1.00000e+00    0.00000e+00    0.00000e+00    0.00000e+00    5.06319e+00    2.25052e+00    5.62728e-01    5.62523e-01    5.62563e-01    5.62523e-01    1.40512e-01    1.40657e-01    1.40512e-01    1.40657e-01    2.83104e+00    9.55655e-01    7.07760e-01    5.24533e-01    7.07760e-01    2.38914e-01    1.31133e-01    1.31133e-01    2.38914e-01
    2.00000e+00    0.00000e+00    0.00000e+00    0.00000e+00    5.06175e+00    2.24987e+00    5.62603e-01    5.62321e-01    5.62372e-01    5.62321e-01    1.40481e-01    1.40654e-01    1.40481e-01    1.40654e-01    2.83104e+00    9.55655e-01    7.07760e-01    5.24533e-01    7.07760e-01    2.38914e-01    1.31133e-01    1.31133e-01    2.38914e-01
    3.00000e+00    0.00000e+00    0.00000e+00    0.00000e+00    5.06066e+00    2.24933e+00    5.62314e-01    5.62332e-01    5.62275e-01    5.62332e-01    1.40408e-01    1.40631e-01    1.40408e-01    1.40631e-01    2.83104e+00    9.55655e-01    7.07760e-01    5.24533e-01    7.07760e-01    2.38914e-01    1.31133e-01    1.31133e-01    2.38914e-01
    4.00000e+00    0.00000e+00    0.00000e+00    0.00000e+00    5.05899e+00    2.24858e+00    5.62364e-01    5.62042e-01    5.61991e-01    5.62042e-01    1.40354e-01    1.40633e-01    1.40354e-01    1.40633e-01    2.83104e+00    9.55655e-01    7.07760e-01    5.24533e-01    7.07760e-01    2.38914e-01    1.31133e-01    1.31133e-01    2.38914e-01
    5.00000e+00    0.00000e+00    0.00000e+00    0.00000e+00    5.05684e+00    2.24758e+00    5.61958e-01    5.61848e-01    5.61778e-01    5.61848e-01    1.40341e-01    1.40575e-01    1.40341e-01    1.40575e-01    2.83104e+00    9.55655e-01    7.07760e-01    5.24533e-01    7.07760e-01    2.38914e-01    1.31133e-01    1.31133e-01    2.38914e-01
    6.00000e+00    0.00000e+00    0.00000e+00    0.00000e+00    5.05468e+00    2.24659e+00    5.61840e-01    5.61577e-01    5.61486e-01    5.61577e-01    1.40316e-01    1.40491e-01    1.40316e-01    1.40491e-01    2.83104e+00    9.55655e-01    7.07760e-01    5.24533e-01    7.07760e-01    2.38914e-01    1.31133e-01    1.31133e-01    2.38914e-01
    7.00000e+00    0.00000e+00    0.00000e+00    0.00000e+00    5.05217e+00    2.24545e+00    5.61495e-01    5.61323e-01    5.61209e-01    5.61323e-01    1.40299e-01    1.40387e-01    1.40299e-01    1.40387e-01    2.83104e+00    9.55655e-01    7.07760e-01    5.24533e-01    7.07760e-01    2.38914e-01    1.31133e-01    1.31133e-01    2.38914e-01
    8.00000e+00    0.00000e+00    0.00000e+00    0.00000e+00    5.04970e+00    2.24433e+00    5.61255e-01    5.61039e-01    5.60924e-01    5.61039e-01    1.40297e-01    1.40257e-01    1.40297e-01    1.40257e-01    2.83104e+00    9.55655e-01    7.07760e-01    5.24533e-01    7.07760e-01    2.38914e-01    1.31133e-01    1.31133e-01    2.38914e-01
    9.00000e+00    0.00000e+00    0.00000e+00    0.00000e+00    5.04728e+00    2.24325e+00    5.60949e-01    5.60767e-01    5.60670e-01    5.60767e-01    1.40300e-01    1.40135e-01    1.40300e-01    1.40135e-01    2.83104e+00    9.55655e-01    7.07760e-01    5.24533e-01    7.07760e-01    2.38914e-01    1.31133e-01    1.31133e-01    2.38914e-01
    1.00000e+01    0.00000e+00    0.00000e+00    0.00000e+00    5.04512e+00    2.24229e+00    5.60706e-01    5.60522e-01    5.60448e-01    5.60522e-01    1.40312e-01    1.40004e-01    1.40312e-01    1.40004e-01    2.83104e+00    9.55655e-01    7.07760e-01    5.24533e-01    7.07760e-01    2.38914e-01    1.31133e-01    1.31133e-01    2.38914e-01
    1.10000e+01    0.00000e+00    0.00000e+00    0.00000e+00    5.04330e+00    2.24149e+00    5.60471e-01    5.60318e-01    5.60274e-01    5.60318e-01    1.40331e-01    1.39885e-01    1.40331e-01    1.39885e-01    2.83104e+00    9.55655e-01    7.07760e-01    5.24533e-01    7.07760e-01    2.38914e-01    1.31133e-01    1.31133e-01    2.38914e-01
    1.20000e+01    0.00000e+00    0.00000e+00    0.00000e+00    5.04192e+00    2.24088e+00    5.60296e-01    5.60161e-01    5.60149e-01    5.60161e-01    1.40357e-01    1.39778e-01    1.40357e-01    1.39778e-01    2.83104e+00    9.55655e-01    7.07760e-01    5.24533e-01    7.07760e-01    2.38914e-01    1.31133e-01    1.31133e-01    2.38914e-01
    1.30000e+01    0.00000e+00    0.00000e+00    0.00000e+00    5.04098e+00    2.24047e+00    5.60162e-01    5.60059e-01    5.60077e-01    5.60059e-01    1.40388e-01    1.39691e-01    1.40388e-01    1.39691e-01    2.83104e+00    9.55655e-01    7.07760e-01    5.24533e-01    7.07760e-01    2.38914e-01    1.31133e-01    1.31133e-01    2.38914e-01
    1.40000e+01    0.00000e+00    0.00000e+00    0.00000e+00    5.04050e+00    2.24026e+00    5.60083e-01    5.60009e-01    5.60049e-01    5.60009e-01    1.40424e-01    1.39623e-01    1.40424e-01    1.39623e-01    2.83104e+00    9.55655e-01    7.07760e-01    5.24533e-01    7.07760e-01    2.38914e-01    1.31133e-01    1.31133e-01    2.38914e-01
    1.50000e+01    0.00000e+00    0.00000e+00    0.00000e+00    5.04041e+00    2.24021e+00    5.60048e-01    5.60006e-01    5.60061e-01    5.60006e-01    1.40464e-01    1.39575e-01    1.40464e-01    1.39575e-01    2.83104e+00    9.55655e-01    7.07760e-01    5.24533e-01    7.07760e-01    2.38914e-01    1.31133e-01    1.31133e-01    2.38914e-01
    1.60000e+01    0.00000e+00    0.00000e+00    0.00000e+00    5.04066e+00    2.24031e+00    5.60055e-01    5.60044e-01    5.60103e-01    5.60044e-01    1.40504e-01    1.39546e-01    1.40504e-01    1.39546e-01    2.83104e+00    9.55655e-01    7.07760e-01    5.24533e-01    7.07760e-01    2.38914e-01    1.31133e-01    1.31133e-01    2.38914e-01
    1.70000e+01    0.00000e+00    0.00000e+00    0.00000e+00    5.04115e+00    2.24051e+00    5.60092e-01    5.60112e-01    5.60166e-01    5.60112e-01    1.40546e-01    1.39532e-01    1.40546e-01    1.39532e-01    2.83104e+00    9.55655e-01    7.07760e-01    5.24533e-01    7.07760e-01    2.38914e-01    1.31133e-01    1.31133e-01    2.38914e-01
    1.80000e+01    0.00000e+00    0.00000e+00    0.00000e+00    5.04181e+00    2.24078e+00    5.60152e-01    5.60201e-01    5.60241e-01    5.60201e-01    1.40588e-01    1.39529e-01    1.40588e-01    1.39529e-01    2.83104e+00    9.55655e-01    7.07760e-01    5.24533e-01    7.07760e-01    2.38914e-01    1.31133e-01    1.31133e-01    2.38914e-01
    1.90000e+01    0.00000e+00    0.00000e+00    0.00000e+00    5.04258e+00    2.24110e+00    5.60225e-01    5.60302e-01    5.60323e-01    5.60302e-01    1.40628e-01    1.39536e-01    1.40628e-01    1.39536e-01    2.83104e+00    9.55655e-01    7.07760e-01    5.24533e-01    7.07760e-01    2.38914e-01    1.31133e-01    1.31133e-01    2.38914e-01
    2.00000e+01    0.00000e+00    0.00000e+00    0.00000e+00    5.04339e+00    2.24143e+00    5.60307e-01    5.60409e-01    5.60407e-01    5.60409e-01    1.40667e-01    1.39548e-01    1.40667e-01    1.39548e-01    2.83104e+00    9.55655e-01    7.07760e-01    5.24533e-01    7.07760e-01    2.38914e-01    1.31133e-01    1.31133e-01    2.38914e-01
    2.10000e+01    0.00000e+00    0.00000e+00    0.00000e+00    5.04420e+00    2.24176e+00    5.60390e-01    5.60516e-01    5.60489e-01    5.60516e-01    1.40704e-01    1.39563e-01    1.40704e-01    1.39563e-01    2.83104e+00    9.55655e-01    7.07760e-01    5.24533e-01    7.07760e-01    2.38914e-01    1.31133e-01    1.31133e-01    2.38914e-01
    2.20000e+01    0.00000e+00    0.00000e+00    0.00000e+00    5.04499e+00    2.24208e+00    5.60473e-01    5.60618e-01    5.60568e-01    5.60618e-01    1.40736e-01    1.39580e-01    1.40736e-01    1.39580e-01    2.83104e+00    9.55655e-01    7.07760e-01    5.24533e-01    7.07760e-01    2.38914e-01    1.31133e-01    1.31133e-01    2.38914e-01
    2.30000e+01    0.00000e+00    0.00000e+00    0.00000e+00    5.04574e+00    2.24239e+00    5.60553e-01    5.60713e-01    5.60641e-01    5.60713e-01    1.40763e-01    1.39598e-01    1.40763e-01    1.39598e-01    2.83104e+00    9.55655e-01    7.07760e-01    5.24533e-01    7.07760e-01    2.38914e-01    1.31133e-01    1.31133e-01    2.38914e-01
    2.40000e+01    0.00000e+00    0.00000e+00    0.00000e+00    5.04641e+00    2.24268e+00    5.60629e-01    5.60797e-01    5.60708e-01    5.60797e-01    1.40783e-01    1.39617e-01    1.40783e-01    1.39617e-01    2.83104e+00    9.55655e-01    7.07760e-01    5.24533e-01    7.07760e-01    2.38914e-01    1.31133e-01    1.31133e-01    2.38914e-01
    2.50000e+01    0.00000e+00    0.00000e+00    0.00000e+00    5.04700e+00    2.24293e+00    5.60699e-01    5.60868e-01    5.60765e-01    5.60868e-01    1.40795e-01    1.39638e-01    1.40795e-01    1.39638e-01    2.83104e+00    9.55655e-01    7.07760e-01    5.24533e-01    7.07760e-01    2.38914e-01    1.31133e-01    1.31133e-01    2.38914e-01
    2.60000e+01    0.00000e+00    0.00000e+00    0.00000e+00    5.04746e+00    2.24314e+00    5.60760e-01    5.60921e-01    5.60809e-01    5.60921e-01    1.40793e-01    1.39661e-01    1.40793e-01    1.39661e-01    2.83104e+00    9.55655e-01    7.07760e-01    5.24533e-01    7.07760e-01    2.38914e-01    1.31133e-01    1.31133e-01    2.38914e-01
    2.70000e+01    0.00000e+00    0.00000e+00    0.00000e+00    5.04779e+00    2.24330e+00    5.60808e-01    5.60955e-01    5.60840e-01    5.60955e-01    1.40779e-01    1.39686e-01    1.40779e-01    1.39686e-01    2.83104e+00    9.55655e-01    7.07760e-01    5.24533e-01    7.07760e-01    2.38914e-01    1.31133e-01    1.31133e-01    2.38914e-01
    2.80000e+01    0.00000e+00    0.00000e+00    0.00000e+00    5.04794e+00    2.24338e+00    5.60841e-01    5.60967e-01    5.60848e-01    5.60967e-01    1.40751e-01    1.39714e-01    1.40751e-01    1.39714e-01    2.83104e+00    9.55655e-01    7.07760e-01    5.24533e-01    7.07760e-01    2.38914e-01    1.31133e-01    1.31133e-01    2.38914e-01
    2.90000e+01    0.00000e+00    0.00000e+00    0.00000e+00    5.04790e+00    2.24339e+00    5.60854e-01    5.60954e-01    5.60840e-01    5.60954e-01    1.40710e-01    1.39744e-01    1.40710e-01    1.39744e-01    2.83104e+00    9.55655e-01    7.07760e-01    5.24533e-01    7.07760e-01    2.38914e-01    1.31133e-01    1.31133e-01    2.38914e-01
    3.00000e+01    0.00000e+00    0.00000e+00    0.00000e+00    5.04766e+00    2.24331e+00    5.60848e-01    5.60919e-01    5.60804e-01    5.60919e-01    1.40654e-01    1.39778e-01    1.40654e-01    1.39778e-01    2.83104e+00    9.55655e-01    7.07760e-01    5.24533e-01    7.07760e-01    2.38914e-01    1.31133e-01    1.31133e-01    2.38914e-01
    3.10000e+01    0.00000e+00    0.00000e+00    0.00000e+00    5.04726e+00    2.24315e+00    5.60816e-01    5.60862e-01    5.60760e-01    5.60862e-01    1.40590e-01    1.39812e-01    1.40590e-01    1.39812e-01    2.83104e+00    9.55655e-01    7.07760e-01    5.24533e-01    7.07760e-01    2.38914e-01    1.31133e-01    1.31133e-01    2.38914e-01
    3.20000e+01    0.00000e+00    0.00000e+00    0.00000e+00    5.04665e+00    2.24291e+00    5.60772e-01    5.60788e-01    5.60680e-01    5.60788e-01    1.40511e-01    1.39849e-01    1.40511e-01    1.39849e-01    2.83104e+00    9.55655e-01    7.07760e-01    5.24533e-01    7.07760e-01    2.38914e-01    1.31133e-01    1.31133e-01    2.38914e-01
    3.30000e+01    0.00000e+00    0.00000e+00    0.00000e+00    5.04594e+00    2.24261e+00    5.60696e-01    5.60692e-01    5.60608e-01    5.60692e-01    1.40436e-01    1.39883e-01    1.40436e-01    1.39883e-01    2.83104e+00    9.55655e-01    7.07760e-01    5.24533e-01    7.07760e-01    2.38914e-01    1.31133e-01    1.31133e-01    2.38914e-01
    3.40000e+01    0.00000e+00    0.00000e+00    0.00000e+00    5.04519e+00    2.24229e+00    5.60624e-01    5.60599e-01    5.60532e-01    5.60599e-01    1.40351e-01    1.39920e-01    1.40351e-01    1.39920e-01    2.83104e+00    9.55655e-01    7.07760e-01    5.24533e-01    7.07760e-01    2.38914e-01    1.31133e-01    1.31133e-01    2.38914e-01
    3.50000e+01    0.00000e+00    0.00000e+00    0.00000e+00    5.04412e+00    2.24183e+00    5.60536e-01    5.60488e-01    5.60349e-01    5.60488e-01    1.40254e-01    1.39957e-01    1.40254e-01    1.39957e-01    2.83104e+00    9.55655e-01    7.07760e-01    5.24533e-01    7.07760e-01    2.38914e-01    1.31133e-01    1.31133e-01    2.38914e-01
    3.60000e+01    0.00000e+00    0.00000e+00    0.00000e+00    5.04359e+00    2.24163e+00    5.60403e-01    5.60331e-01    5.60476e-01    5.60331e-01    1.40232e-01    1.39977e-01    1.40232e-01    1.39977e-01    2.83104e+00    9.55655e-01    7.07760e-01    5.24533e-01    7.07760e-01    2.38914e-01    1.31133e-01    1.31133e-01    2.38914e-01
    3.70000e+01    0.00000e+00    0.00000e+00    0.00000e+00    5.04253e+00    2.24114e+00    5.60415e-01    5.60325e-01    5.60060e-01    5.60325e-01    1.40131e-01    1.39999e-01    1.40131e-01    1.39999e-01    2.83104e+00    9.55655e-01    7.07760e-01    5.24533e-01    7.07760e-01    2.38914e-01    1.31133e-01    1.31133e-01    2.38914e-01
    3.80000e+01    0.00000e+00    0.00000e+00    0.00000e+00    5.04161e+00    2.24078e+00    5.60180e-01    5.60102e-01    5.60309e-01    5.60102e-01    1.40055e-01    1.40016e-01    1.40055e-01    1.40016e-01    2.83104e+00    9.55655e-01    7.07760e-01    5.24533e-01    7.07760e-01    2.38914e-01    1.31133e-01    1.31133e-01    2.38914e-01
    3.90000e+01    0.00000e+00    0.00000e+00    0.00000e+00    5.04200e+00    2.24104e+00    5.60223e-01    5.60217e-01    5.60223e-01    5.60217e-01    1.40065e-01    1.39974e-01    1.40065e-01    1.39974e-01    2.83104e+00    9.55655e-01    7.07760e-01    5.24533e-01    7.07760e-01    2.38914e-01    1.31133e-01    1.31133e-01    2.38914e-01
    0.00000e+00    1.00000e+00    0.00000e+00    0.00000e+00    5.06318e+00    2.25051e+00    5.62535e-01    5.62728e-01    5.62535e-01    5.62561e-01    1.40499e-01    1.40657e-01    1.40499e-01    1.40657e-01    2.83104e+00    9.55655e-01    7.07760e-01    5.24533e-01    7.07760e-01    2.38914e-01    1.31133e-01    1.31133e-01    2.38914e-01
    1.00000e+00    1.00000e+00    5.34637e-05    1.21534e-04    5.06254e+00    2.25021e+00    5.62641e-01    5.62650e-01    5.62469e-01    5.62230e-01    1.40675e-01    1.40593e-01    1.40527e-01    1.40545e-01    2.83104e+00    9.55655e-01    7.07760e-01    5.24533e-01    7.07760e-01    2.38914e-01    1.31133e-01    1.31133e-01    2.38914e-01
    2.00000e+00    1.00000e+00    8.04429e-05    1.37146e-04    5.06146e+00    2.24972e+00    5.62518e-01    5.62546e-01    5.62217e-01    5.62103e-01    1.40743e-01    1.40564e-01    1.40564e-01    1.40491e-01    2.83104e+00    9.55655e-01    7.07760e-01    5.24533e-01    7.07760e-01    2.38914e-01    1.31133e-01    1.31133e-01    2.38914e-01
    3.00000e+00    1.00000e+00    9.49797e-05    9.15481e-05    5.06019e+00    2.24913e+00    5.62490e-01    5.62275e-01    5.62149e-01    5.61951e-01    1.40693e-01    1.40474e-01    1.40554e-01    1.40475e-01    2.83104e+00    9.55655e-01    7.07760e-01    5.24533e-01    7.07760e-01    2.38914e-01    1.31133e-01    1.31133e-01    2.38914e-01
    4.00000e+00    1.00000e+00    4.34132e-05    1.36768e-04    5.05858e+00    2.24838e+00    5.62246e-01    5.62187e-01    5.62068e-01    5.61705e-01    1.40683e-01    1.40417e-01    1.40557e-01    1.40334e-01    2.83104e+00    9.55655e-01    7.07760e-01    5.24533e-01    7.07760e-01    2.38914e-01    1.31133e-01    1.31133e-01    2.38914e-01
    5.00000e+00    1.00000e+00   -6.05532e-05    1.38558e-04    5.05660e+00    2.24747e+00    5.61918e-01    5.61895e-01    5.62088e-01    5.61416e-01    1.40640e-01    1.40379e-01    1.40597e-01    1.40200e-01    2.83104e+00    9.55655e-01    7.07760e-01    5.24533e-01    7.07760e-01    2.38914e-01    1.31133e-01    1.31133e-01    2.38914e-01
    6.00000e+00    1.00000e+00   -2.09602e-04    1.33404e-04    5.05440e+00    2.24646e+00    5.61427e-01    5.61674e-01    5.62096e-01    5.61200e-01    1.40532e-01    1.40339e-01    1.40626e-01    1.40044e-01    2.83104e+00    9.55655e-01    7.07760e-01    5.24533e-01    7.07760e-01    2.38914e-01    1.31133e-01    1.31133e-01    2.38914e-01
    7.00000e+00    1.00000e+00   -3.77222e-04    1.29161e-04    5.05202e+00    2.24538e+00    5.60893e-01    5.61373e-01    5.62138e-01    5.60912e-01    1.40439e-01    1.40321e-01    1.40673e-01    1.39894e-01    2.83104e+00    9.55655e-01    7.07760e-01    5.24533e-01    7.07760e-01    2.38914e-01    1.31133e-01    1.31133e-01    2.38914e-01
    8.00000e+00    1.00000e+00   -5.70045e-04    1.31715e-04    5.04960e+00    2.24429e+00    5.60320e-01    5.61105e-01    5.62211e-01    5.60633e-01    1.40325e-01    1.40296e-01    1.40722e-01    1.39706e-01    2.83104e+00    9.55655e-01    7.07760e-01    5.24533e-01    7.07760e-01    2.38914e-01    1.31133e-01    1.31133e-01    2.38914e-01
    9.00000e+00    1.00000e+00   -7.76770e-04    1.30502e-04    5.04726e+00    2.24324e+00    5.59709e-01    5.60841e-01    5.62305e-01    5.60375e-01    1.40204e-01    1.40290e-01    1.40770e-01    1.39531e-01    2.83104e+00    9.55655e-01    7.07760e-01    5.24533e-01    7.07760e-01    2.38914e-01    1.31133e-01    1.31133e-01    2.38914e-01
    1.00000e+01    1.00000e+00   -9.83442e-04    1.29961e-04    5.04515e+00    2.24230e+00    5.59121e-01    5.60612e-01    5.62416e-01    5.60148e-01    1.40086e-01    1.40290e-01    1.40823e-01    1.39361e-01    2.83104e+00    9.55655e-01    7.07760e-01    5.24533e-01    7.07760e-01    2.38914e-01    1.31133e-01    1.31133e-01    2.38914e-01
    1.10000e+01    1.00000e+00   -1.18160e-03    1.26926e-04    5.04337e+00    2.24151e+00    5.58576e-01    5.60417e-01    5.62544e-01    5.59964e-01    1.39977e-01    1.40299e-01    1.40878e-01    1.39210e-01    2.83104e+00    9.55655e-01    7.07760e-01    5.24533e-01    7.07760e-01    2.38914e-01    1.31133e-01    1.31133e-01    2.38914e-01
    1.20000e+01    1.00000e+00   -1.36454e-03    1.22167e-04    5.04200e+00    2.24090e+00    5.58099e-01    5.60270e-01    5.62686e-01    5.59836e-01    1.39880e-01    1.40313e-01    1.40936e-01    1.39076e-01    2.83104e+00    9.55655e-01    7.07760e-01    5.24533e-01    7.07760e-01    2.38914e-01    1.31133e-01    1.31133e-01    2.38914e-01
    1.30000e+01    1.00000e+00   -1.52670e-03    1.12994e-04    5.04106e+00    2.24049e+00    5.57699e-01    5.60167e-01    5.62837e-01    5.59766e-01    1.39800e-01    1.40335e-01    1.40995e-01    1.38972e-01    2.83104e+00    9.55655e-01    7.07760e-01    5.24533e-01    7.07760e-01    2.38914e-01    1.31133e-01    1.31133e-01    2.38914e-01
    1.40000e+01    1.00000e+00   -1.66516e-03    1.00422e-04    5.04055e+00    2.24026e+00    5.57387e-01    5.60110e-01    5.62995e-01    5.59752e-01    1.39738e-01    1.40360e-01    1.41057e-01    1.38893e-01    2.83104e+00    9.55655e-01    7.07760e-01    5.24533e-01    7.07760e-01    2.38914e-01    1.31133e-01    1.31133e-01    2.38914e-01
    1.50000e+01    1.00000e+00   -1.77967e-03    8.31641e-05    5.04044e+00    2.24021e+00    5.57158e-01    5.60090e-01    5.63154e-01    5.59793e-01    1.39692e-01    1.40387e-01    1.41118e-01    1.38840e-01    2.83104e+00    9.55655e-01    7.07760e-01    5.24533e-01    7.07760e-01    2.38914e-01    1.31133e-01    1.31133e-01    2.38914e-01
    1.60000e+01    1.00000e+00   -1.87172e-03    6.23637e-05    5.04065e+00    2.24029e+00    5.57004e-01    5.60102e-01    5.63313e-01    5.59876e-01    1.39662e-01    1.40416e-01    1.41180e-01    1.38809e-01    2.83104e+00    9.55655e-01    7.07760e-01    5.24533e-01    7.07760e-01    2.38914e-01    1.31133e-01    1.31133e-01    2.38914e-01
    1.70000e+01    1.00000e+00   -1.94384e-03    3.87163e-05    5.04112e+00    2.24048e+00    5.56912e-01    5.60137e-01    5.63466e-01    5.59991e-01    1.39645e-01    1.40446e-01    1.41242e-01    1.38799e-01    2.83104e+00    9.55655e-01    7.07760e-01    5.24533e-01    7.07760e-01    2.38914e-01    1.31133e-01    1.31133e-01    2.38914e-01
    1.80000e+01    1.00000e+00   -1.99923e-03    1.24902e-05    5.04177e+00    2.24075e+00    5.56871e-01    5.60187e-01    5.63614e-01    5.60131e-01    1.39637e-01    1.40474e-01    1.41302e-01    1.38802e-01    2.83104e+00    9.55655e-01    7.07760e-01    5.24533e-01    7.07760e-01    2.38914e-01    1.31133e-01    1.31133e-01    2.38914e-01
    1.90000e+01    1.00000e+00   -2.04111e-03   -1.56517e-05    5.04252e+00    2.24106e+00    5.56865e-01    5.60246e-01    5.63752e-01    5.60286e-01    1.39635e-01    1.40501e-01    1.41358e-01    1.38818e-01    2.83104e+00    9.55655e-01    7.07760e-01    5.24533e-01    7.07760e-01    2.38914e-01    1.31133e-01    1.31133e-01    2.38914e-01
    2.00000e+01    1.00000e+00   -2.07193e-03   -4.37173e-05    5.04333e+00    2.24139e+00    5.56886e-01    5.60311e-01    5.63879e-01    5.60445e-01    1.39639e-01    1.40527e-01    1.41410e-01    1.38842e-01    2.83104e+00    9.55655e-01    7.07760e-01    5.24533e-01    7.07760e-01    2.38914e-01    1.31133e-01    1.31133e-01    2.38914e-01
    2.10000e+01    1.00000e+00   -2.09308e-03   -7.13693e-05    5.04415e+00    2.24173e+00    5.56925e-01    5.60376e-01    5.63992e-01    5.60604e-01    1.39645e-01    1.40551e-01    1.41456e-01    1.38872e-01    2.83104e+00    9.55655e-01    7.07760e-01    5.24533e-01    7.07760e-01    2.38914e-01    1.31133e-01    1.31133e-01    2.38914e-01
    2.20000e+01    1.00000e+00   -2.10459e-03   -9.78336e-05    5.04495e+00    2.24205e+00    5.56977e-01    5.60442e-01    5.64086e-01    5.60760e-01    1.39652e-01    1.40573e-01    1.41494e-01    1.38906e-01    2.83104e+00    9.55655e-01    7.07760e-01    5.24533e-01    7.07760e-01    2.38914e-01    1.31133e-01    1.31133e-01    2.38914e-01
    2.30000e+01    1.00000e+00   -2.10492e-03   -1.21213e-04    5.04570e+00    2.24237e+00    5.57042e-01    5.60506e-01    5.64154e-01    5.60905e-01    1.39662e-01    1.40592e-01    1.41522e-01    1.38944e-01    2.83104e+00    9.55655e-01    7.07760e-01    5.24533e-01    7.07760e-01    2.38914e-01    1.31133e-01    1.31133e-01    2.38914e-01
    2.40000e+01    1.00000e+00   -2.09128e-03   -1.40463e-04    5.04638e+00    2.24266e+00    5.57121e-01    5.60569e-01    5.64190e-01    5.61034e-01    1.39673e-01    1.40608e-01    1.41537e-01    1.38987e-01    2.83104e+00    9.55655e-01    7.07760e-01    5.24533e-01    7.07760e-01    2.38914e-01    1.31133e-01    1.31133e-01    2.38914e-01
    2.50000e+01    1.00000e+00   -2.06017e-03   -1.55903e-04    5.04696e+00    2.24291e+00    5.57218e-01    5.60627e-01    5.64185e-01    5.61148e-01    1.39687e-01    1.40616e-01    1.41536e-01    1.39033e-01    2.83104e+00    9.55655e-01    7.07760e-01    5.24533e-01    7.07760e-01    2.38914e-01    1.31133e-01    1.31133e-01    2.38914e-01
    2.60000e+01    1.00000e+00   -2.00817e-03   -1.66159e-04    5.04743e+00    2.24313e+00    5.57336e-01    5.60680e-01    5.64129e-01    5.61239e-01    1.39704e-01    1.40617e-01    1.41516e-01    1.39085e-01    2.83104e+00    9.55655e-01    7.07760e-01    5.24533e-01    7.07760e-01    2.38914e-01    1.31133e-01    1.31133e-01    2.38914e-01
    2.70000e+01    1.00000e+00   -1.93239e-03   -1.71354e-04    5.04776e+00    2.24328e+00    5.57478e-01    5.60723e-01    5.64016e-01    5.61303e-01    1.39726e-01    1.40608e-01    1.41477e-01    1.39143e-01    2.83104e+00    9.55655e-01    7.07760e-01    5.24533e-01    7.07760e-01    2.38914e-01    1.31133e-01    1.31133e-01    2.38914e-01
    2.80000e+01    1.00000e+00   -1.83110e-03   -1.72416e-04    5.04791e+00    2.24337e+00    5.57645e-01    5.60752e-01    5.63842e-01    5.61339e-01    1.39751e-01    1.40589e-01    1.41415e-01    1.39208e-01    2.83104e+00    9.55655e-01    7.07760e-01    5.24533e-01    7.07760e-01    2.38914e-01    1.31133e-01    1.31133e-01    2.38914e-01
    2.90000e+01    1.00000e+00   -1.70411e-03   -1.70037e-04    5.04789e+00    2.24338e+00    5.57837e-01    5.60767e-01    5.63605e-01    5.61350e-01    1.39779e-01    1.40557e-01    1.41333e-01    1.39278e-01    2.83104e+00    9.55655e-01    7.07760e-01    5.24533e-01    7.07760e-01    2.38914e-01    1.31133e-01    1.31133e-01    2.38914e-01
    3.00000e+01    1.00000e+00   -1.55352e-03   -1.63841e-04    5.04767e+00    2.24331e+00    5.58053e-01    5.60760e-01    5.63312e-01    5.61328e-01    1.39809e-01    1.40518e-01    1.41230e-01    1.39356e-01    2.83104e+00    9.55655e-01    7.07760e-01    5.24533e-01    7.07760e-01    2.38914e-01    1.31133e-01    1.31133e-01    2.38914e-01
    3.10000e+01    1.00000e+00   -1.38120e-03   -1.56561e-04    5.04728e+00    2.24316e+00    5.58286e-01    5.60739e-01    5.62959e-01    5.61284e-01    1.39841e-01    1.40465e-01    1.41112e-01    1.39439e-01    2.83104e+00    9.55655e-01    7.07760e-01    5.24533e-01    7.07760e-01    2.38914e-01    1.31133e-01    1.31133e-01    2.38914e-01
    3.20000e+01    1.00000e+00   -1.19259e-03   -1.46508e-04    5.04674e+00    2.24294e+00    5.58538e-01    5.60691e-01    5.62577e-01    5.61208e-01    1.39872e-01    1.40408e-01    1.40973e-01    1.39530e-01    2.83104e+00    9.55655e-01    7.07760e-01    5.24533e-01    7.07760e-01    2.38914e-01    1.31133e-01    1.31133e-01    2.38914e-01
    3.30000e+01    1.00000e+00   -9.92919e-04   -1.33335e-04    5.04607e+00    2.24267e+00    5.58796e-01    5.60641e-01    5.62152e-01    5.61113e-01    1.39905e-01    1.40346e-01    1.40832e-01    1.39619e-01    2.83104e+00    9.55655e-01    7.07760e-01    5.24533e-01    7.07760e-01    2.38914e-01    1.31133e-01    1.31133e-01    2.38914e-01
    3.40000e+01    1.00000e+00   -7.86342e-04   -1.24854e-04    5.04532e+00    2.24235e+00    5.59063e-01    5.60574e-01    5.61728e-01    5.61015e-01    1.39931e-01    1.40268e-01    1.40677e-01    1.39712e-01    2.83104e+00    9.55655e-01    7.07760e-01    5.24533e-01    7.07760e-01    2.38914e-01    1.31133e-01    1.31133e-01    2.38914e-01
    3.50000e+01    1.00000e+00   -5.88187e-04   -1.04286e-04    5.04448e+00    2.24199e+00    5.59328e-01    5.60465e-01    5.61310e-01    5.60859e-01    1.39964e-01    1.40230e-01    1.40522e-01    1.39804e-01    2.83104e+00    9.55655e-01    7.07760e-01    5.24533e-01    7.07760e-01    2.38914e-01    1.31133e-01    1.31133e-01    2.38914e-01
    3.60000e+01    1.00000e+00   -3.85396e-04   -6.28925e-05    5.04371e+00    2.24167e+00    5.59559e-01    5.60498e-01    5.60871e-01    5.60716e-01    1.39993e-01    1.40155e-01    1.40358e-01    1.39889e-01    2.83104e+00    9.55655e-01    7.07760e-01    5.24533e-01    7.07760e-01    2.38914e-01    1.31133e-01    1.31133e-01    2.38914e-01
    3.70000e+01    1.00000e+00   -2.43745e-04   -6.01933e-05    5.04301e+00    2.24137e+00    5.59852e-01    5.60294e-01    5.60702e-01    5.60527e-01    1.39987e-01    1.40106e-01    1.40212e-01    1.39952e-01    2.83104e+00    9.55655e-01    7.07760e-01    5.24533e-01    7.07760e-01    2.38914e-01    1.31133e-01    1.31133e-01    2.38914e-01
    3.80000e+01    1.00000e+00   -1.38341e-04    1.68360e-05    5.04230e+00    2.24108e+00    5.59921e-01    5.60324e-01    5.60356e-01    5.60325e-01    1.40019e-01    1.40170e-01    1.40108e-01    1.39995e-01    2.83104e+00    9.55655e-01    7.07760e-01    5.24533e-01    7.07760e-01    2.38914e-01    1.31133e-01    1.31133e-01    2.38914e-01
    3.90000e+01    1.00000e+00    0.00000e+00    0.00000e+00    5.04166e+00    2.24080e+00    5.60066e-01    5.60315e-01    5.60066e-01    5.60198e-01    1.40044e-01    1.40064e-01    1.40044e-01    1.40064e-01    2.83104e+00    9.55655e-01    7.07760e-01    5.24533e-01    7.07760e-01    2.38914e-01    1.31133e-01    1.31133e-01    2.38914e-01
    0.00000e+00    2.00000e+00    0.00000e+00    0.00000e+00    5.06159e+00    2.24979e+00    5.62324e-01    5.62600e-01    5.62324e-01    5.62330e-01    1.40398e-01    1.40712e-01    1.40398e-01    1.40712e-01    2.83104e+00    9.55655e-01    7.07760e-01    5.24533e-01    7.07760e-01    2.38914e-01    1.31133e-01    1.31133e-01    2.38914e-01
    1.00000e+00    2.00000e+00    1.54690e-05    3.23023e-04    5.06127e+00    2.24963e+00    5.62514e-01    5.62695e-01    5.62507e-01    5.61572e-01    1.40749e-01    1.40684e-01    1.40458e-01    1.40464e-01    2.83104e+00    9.55655e-01    7.07760e-01    5.24533e-01    7.07760e-01    2.38914e-01    1.31133e-01    1.31133e-01    2.38914e-01
    2.00000e+00    2.00000e+00   -1.00750e-04    3.10245e-04    5.06043e+00    2.24924e+00    5.62258e-01    5.62615e-01    5.62586e-01    5.61558e-01    1.40689e-01    1.40653e-01    1.40524e-01    1.40306e-01    2.83104e+00    9.55655e-01    7.07760e-01    5.24533e-01    7.07760e-01    2.38914e-01    1.31133e-01    1.31133e-01    2.38914e-01
    3.00000e+00    2.00000e+00   -2.29548e-04    3.16660e-04    5.05916e+00    2.24865e+00    5.61909e-01    5.62451e-01    5.62698e-01    5.61373e-01    1.40594e-01    1.40704e-01    1.40518e-01    1.40256e-01    2.83104e+00    9.55655e-01    7.07760e-01    5.24533e-01    7.07760e-01    2.38914e-01    1.31133e-01    1.31133e-01    2.38914e-01
    4.00000e+00    2.00000e+00   -4.09694e-04    3.66803e-04    5.05762e+00    2.24793e+00    5.61485e-01    5.62325e-01    5.62887e-01    5.61077e-01    1.40535e-01    1.40724e-01    1.40566e-01    1.40085e-01    2.83104e+00    9.55655e-01    7.07760e-01    5.24533e-01    7.07760e-01    2.38914e-01    1.31133e-01    1.31133e-01    2.38914e-01
    5.00000e+00    2.00000e+00   -6.27259e-04    4.00857e-04    5.05582e+00    2.24710e+00    5.60913e-01    5.62172e-01    5.63061e-01    5.60819e-01    1.40453e-01    1.40761e-01    1.40628e-01    1.39912e-01    2.83104e+00    9.55655e-01    7.07760e-01    5.24533e-01    7.07760e-01    2.38914e-01    1.31133e-01    1.31133e-01    2.38914e-01