TITLE="LBM output"
VARIABLES = "X", "Y", "U","V","density","f0","f1","f2","f3","f4","f5","f6","f7","f8","feq0","feq1","feq2","feq3","feq4","feq5","feq6","feq7","feq8",
ZONE T = "fluid", I=40, J=40, F=POINT
SOLUTIONTIME=680
    0.00000e+00    0.00000e+00    0.00000e+00    0.00000e+00    5.09069e+00    2.26266e+00    5.65626e-01    5.65626e-01    5.65626e-01    5.65626e-01    1.41351e-01    1.41416e-01    1.41351e-01    1.41416e-01    2.84801e+00    9.61384e-01    7.12002e-01    5.27677e-01    7.12002e-01    2.40346e-01    1.31919e-01    1.31919e-01    2.40346e-01
    1.00000e+00    0.00000e+00    0.00000e+00    0.00000e+00    5.09012e+00    2.26240e+00    5.65692e-01    5.65505e-01    5.65568e-01    5.65505e-01    1.41320e-01    1.41402e-01    1.41320e-01    1.41402e-01    2.84801e+00    9.61384e-01    7.12002e-01    5.27677e-01    7.12002e-01    2.40346e-01    1.31919e-01    1.31919e-01    2.40346e-01
    2.00000e+00    0.00000e+00    0.00000e+00    0.00000e+00    5.08984e+00    2.26228e+00    5.65533e-01    5.65506e-01    5.65575e-01    5.65506e-01    1.41293e-01    1.41430e-01    1.41293e-01    1.41430e-01    2.84801e+00    9.61384e-01    7.12002e-01    5.27677e-01    7.12002e-01    2.40346e-01    1.31919e-01    1.31919e-01    2.40346e-01
    3.00000e+00    0.00000e+00    0.00000e+00    0.00000e+00    5.08967e+00    2.26220e+00    5.65593e-01    5.65465e-01    5.65515e-01    5.65465e-01    1.41262e-01    1.41456e-01    1.41262e-01    1.41456e-01    2.84801e+00    9.61384e-01    7.12002e-01    5.27677e-01    7.12002e-01    2.40346e-01    1.31919e-01    1.31919e-01    2.40346e-01
    4.00000e+00    0.00000e+00    0.00000e+00    0.00000e+00    5.08916e+00    2.26197e+00    5.65518e-01    5.65416e-01    5.65466e-01    5.65416e-01    1.41243e-01    1.41446e-01    1.41243e-01    1.41446e-01    2.84801e+00    9.61384e-01    7.12002e-01    5.27677e-01    7.12002e-01    2.40346e-01    1.31919e-01    1.31919e-01    2.40346e-01
    5.00000e+00    0.00000e+00    0.00000e+00    0.00000e+00    5.08870e+00    2.26175e+00    5.65468e-01    5.65366e-01    5.65405e-01    5.65366e-01    1.41226e-01    1.41445e-01    1.41226e-01    1.41445e-01    2.84801e+00    9.61384e-01    7.12002e-01    5.27677e-01    7.12002e-01    2.40346e-01    1.31919e-01    1.31919e-01    2.40346e-01
    6.00000e+00    0.00000e+00    0.00000e+00    0.00000e+00    5.08810e+00    2.26148e+00    5.65416e-01    5.65297e-01    5.65329e-01    5.65297e-01    1.41214e-01    1.41428e-01    1.41214e-01    1.41428e-01    2.84801e+00    9.61384e-01    7.12002e-01    5.27677e-01    7.12002e-01    2.40346e-01    1.31919e-01    1.31919e-01    2.40346e-01
    7.00000e+00    0.00000e+00    0.00000e+00    0.00000e+00    5.08743e+00    2.26117e+00    5.65332e-01    5.65229e-01    5.65251e-01    5.65229e-01    1.41203e-01    1.41406e-01    1.41203e-01    1.41406e-01    2.84801e+00    9.61384e-01    7.12002e-01    5.27677e-01    7.12002e-01    2.40346e-01    1.31919e-01    1.31919e-01    2.40346e-01
    8.00000e+00    0.00000e+00    0.00000e+00    0.00000e+00    5.08671e+00    2.26084e+00    5.65262e-01    5.65149e-01    5.65163e-01    5.65149e-01    1.41198e-01    1.41376e-01    1.41198e-01    1.41376e-01    2.84801e+00    9.61384e-01    7.12002e-01    5.27677e-01    7.12002e-01    2.40346e-01    1.31919e-01    1.31919e-01    2.40346e-01
    9.00000e+00    0.00000e+00    0.00000e+00    0.00000e+00    5.08595e+00    2.26049e+00    5.65169e-01    5.65068e-01    5.65076e-01    5.65068e-01    1.41195e-01    1.41344e-01    1.41195e-01    1.41344e-01    2.84801e+00    9.61384e-01    7.12002e-01    5.27677e-01    7.12002e-01    2.40346e-01    1.31919e-01    1.31919e-01    2.40346e-01
    1.00000e+01    0.00000e+00    0.00000e+00    0.00000e+00    5.08520e+00    2.26015e+00    5.65086e-01    5.64986e-01    5.64989e-01    5.64986e-01    1.41195e-01    1.41305e-01    1.41195e-01    1.41305e-01    2.84801e+00    9.61384e-01    7.12002e-01    5.27677e-01    7.12002e-01    2.40346e-01    1.31919e-01    1.31919e-01    2.40346e-01
    1.10000e+01    0.00000e+00    0.00000e+00    0.00000e+00    5.08446e+00    2.25981e+00    5.64996e-01    5.64908e-01    5.64908e-01    5.64908e-01    1.41200e-01    1.41265e-01    1.41200e-01    1.41265e-01    2.84801e+00    9.61384e-01    7.12002e-01    5.27677e-01    7.12002e-01    2.40346e-01    1.31919e-01    1.31919e-01    2.40346e-01
    1.20000e+01    0.00000e+00    0.00000e+00    0.00000e+00    5.08379e+00    2.25950e+00    5.64917e-01    5.64836e-01    5.64836e-01    5.64836e-01    1.41207e-01    1.41224e-01    1.41207e-01    1.41224e-01    2.84801e+00    9.61384e-01    7.12002e-01    5.27677e-01    7.12002e-01    2.40346e-01    1.31919e-01    1.31919e-01    2.40346e-01
    1.30000e+01    0.00000e+00    0.00000e+00    0.00000e+00    5.08320e+00    2.25923e+00    5.64842e-01    5.64774e-01    5.64775e-01    5.64774e-01    1.41217e-01    1.41185e-01    1.41217e-01    1.41185e-01    2.84801e+00    9.61384e-01    7.12002e-01    5.27677e-01    7.12002e-01    2.40346e-01    1.31919e-01    1.31919e-01    2.40346e-01
    1.40000e+01    0.00000e+00    0.00000e+00    0.00000e+00    5.08272e+00    2.25901e+00    5.64781e-01    5.64725e-01    5.64727e-01    5.64725e-01    1.41231e-01    1.41146e-01    1.41231e-01    1.41146e-01    2.84801e+00    9.61384e-01    7.12002e-01    5.27677e-01    7.12002e-01    2.40346e-01    1.31919e-01    1.31919e-01    2.40346e-01
    1.50000e+01    0.00000e+00    0.00000e+00    0.00000e+00    5.08236e+00    2.25884e+00    5.64730e-01    5.64689e-01    5.64692e-01    5.64689e-01    1.41245e-01    1.41113e-01    1.41245e-01    1.41113e-01    2.84801e+00    9.61384e-01    7.12002e-01    5.27677e-01    7.12002e-01    2.40346e-01    1.31919e-01    1.31919e-01    2.40346e-01
    1.60000e+01    0.00000e+00    0.00000e+00    0.00000e+00    5.08211e+00    2.25873e+00    5.64694e-01    5.64668e-01    5.64670e-01    5.64668e-01    1.41260e-01    1.41085e-01    1.41260e-01    1.41085e-01    2.84801e+00    9.61384e-01    7.12002e-01    5.27677e-01    7.12002e-01    2.40346e-01    1.31919e-01    1.31919e-01    2.40346e-01
    1.70000e+01    0.00000e+00    0.00000e+00    0.00000e+00    5.08197e+00    2.25865e+00    5.64670e-01    5.64659e-01    5.64658e-01    5.64659e-01    1.41275e-01    1.41063e-01    1.41275e-01    1.41063e-01    2.84801e+00    9.61384e-01    7.12002e-01    5.27677e-01    7.12002e-01    2.40346e-01    1.31919e-01    1.31919e-01    2.40346e-01
    1.80000e+01    0.00000e+00    0.00000e+00    0.00000e+00    5.08191e+00    2.25862e+00    5.64656e-01    5.64660e-01    5.64652e-01    5.64660e-01    1.41289e-01    1.41046e-01    1.41289e-01    1.41046e-01    2.84801e+00    9.61384e-01    7.12002e-01    5.27677e-01    7.12002e-01    2.40346e-01    1.31919e-01    1.31919e-01    2.40346e-01
    1.90000e+01    0.00000e+00    0.00000e+00    0.00000e+00    5.08191e+00    2.25860e+00    5.64650e-01    5.64669e-01    5.64651e-01    5.64669e-01    1.41299e-01    1.41035e-01    1.41299e-01    1.41035e-01    2.84801e+00    9.61384e-01    7.12002e-01    5.27677e-01    7.12002e-01    2.40346e-01    1.31919e-01    1.31919e-01    2.40346e-01
    2.00000e+01    0.00000e+00    0.00000e+00    0.00000e+00    5.08192e+00    2.25859e+00    5.64648e-01    5.64680e-01    5.64649e-01    5.64680e-01    1.41307e-01    1.41030e-01    1.41307e-01    1.41030e-01    2.84801e+00    9.61384e-01    7.12002e-01    5.27677e-01    7.12002e-01    2.40346e-01    1.31919e-01    1.31919e-01    2.40346e-01
    2.10000e+01    0.00000e+00    0.00000e+00    0.00000e+00    5.08192e+00    2.25858e+00    5.64646e-01    5.64690e-01    5.64642e-01    5.64690e-01    1.41310e-01    1.41029e-01    1.41310e-01    1.41029e-01    2.84801e+00    9.61384e-01    7.12002e-01    5.27677e-01    7.12002e-01    2.40346e-01    1.31919e-01    1.31919e-01    2.40346e-01
    2.20000e+01    0.00000e+00    0.00000e+00    0.00000e+00    5.08186e+00    2.25853e+00    5.64640e-01    5.64694e-01    5.64627e-01    5.64694e-01    1.41308e-01    1.41030e-01    1.41308e-01    1.41030e-01    2.84801e+00    9.61384e-01    7.12002e-01    5.27677e-01    7.12002e-01    2.40346e-01    1.31919e-01    1.31919e-01    2.40346e-01
    2.30000e+01    0.00000e+00    0.00000e+00    0.00000e+00    5.08172e+00    2.25845e+00    5.64626e-01    5.64688e-01    5.64600e-01    5.64688e-01    1.41299e-01    1.41034e-01    1.41299e-01    1.41034e-01    2.84801e+00    9.61384e-01    7.12002e-01    5.27677e-01    7.12002e-01    2.40346e-01    1.31919e-01    1.31919e-01    2.40346e-01
    2.40000e+01    0.00000e+00    0.00000e+00    0.00000e+00    5.08146e+00    2.25833e+00    5.64601e-01    5.64668e-01    5.64560e-01    5.64668e-01    1.41284e-01    1.41038e-01    1.41284e-01    1.41038e-01    2.84801e+00    9.61384e-01    7.12002e-01    5.27677e-01    7.12002e-01    2.40346e-01    1.31919e-01    1.31919e-01    2.40346e-01
    2.50000e+01    0.00000e+00    0.00000e+00    0.00000e+00    5.08107e+00    2.25814e+00    5.64563e-01    5.64632e-01    5.64504e-01    5.64632e-01    1.41262e-01    1.41041e-01    1.41262e-01    1.41041e-01    2.84801e+00    9.61384e-01    7.12002e-01    5.27677e-01    7.12002e-01    2.40346e-01    1.31919e-01    1.31919e-01    2.40346e-01
    2.60000e+01    0.00000e+00    0.00000e+00    0.00000e+00    5.08054e+00    2.25789e+00    5.64510e-01    5.64578e-01    5.64433e-01    5.64578e-01    1.41232e-01    1.41043e-01    1.41232e-01    1.41043e-01    2.84801e+00    9.61384e-01    7.12002e-01    5.27677e-01    7.12002e-01    2.40346e-01    1.31919e-01    1.31919e-01    2.40346e-01
    2.70000e+01    0.00000e+00    0.00000e+00    0.00000e+00    5.07986e+00    2.25758e+00    5.64441e-01    5.64505e-01    5.64346e-01    5.64505e-01    1.41197e-01    1.41044e-01    1.41197e-01    1.41044e-01    2.84801e+00    9.61384e-01    7.12002e-01    5.27677e-01    7.12002e-01    2.40346e-01    1.31919e-01    1.31919e-01    2.40346e-01
    2.80000e+01    0.00000e+00    0.00000e+00    0.00000e+00    5.07904e+00    2.25721e+00    5.64357e-01    5.64416e-01    5.64247e-01    5.64416e-01    1.41155e-01    1.41042e-01    1.41155e-01    1.41042e-01    2.84801e+00    9.61384e-01    7.12002e-01    5.27677e-01    7.12002e-01    2.40346e-01    1.31919e-01    1.31919e-01    2.40346e-01
    2.90000e+01    0.00000e+00    0.00000e+00    0.00000e+00    5.07811e+00    2.25679e+00    5.64260e-01    5.64312e-01    5.64136e-01    5.64312e-01    1.41109e-01    1.41038e-01    1.41109e-01    1.41038e-01    2.84801e+00    9.61384e-01    7.12002e-01    5.27677e-01    7.12002e-01    2.40346e-01    1.31919e-01    1.31919e-01    2.40346e-01
    3.00000e+01    0.00000e+00    0.00000e+00    0.00000e+00    5.07709e+00    2.25634e+00    5.64152e-01    5.64194e-01    5.64021e-01    5.64194e-01    1.41059e-01    1.41032e-01    1.41059e-01    1.41032e-01    2.84801e+00    9.61384e-01    7.12002e-01    5.27677e-01    7.12002e-01    2.40346e-01    1.31919e-01    1.31919e-01    2.40346e-01
    3.10000e+01    0.00000e+00    0.00000e+00    0.00000e+00    5.07601e+00    2.25587e+00    5.64037e-01    5.64070e-01    5.63898e-01    5.64070e-01    1.41009e-01    1.41023e-01    1.41009e-01    1.41023e-01    2.84801e+00    9.61384e-01    7.12002e-01    5.27677e-01    7.12002e-01    2.40346e-01    1.31919e-01    1.31919e-01    2.40346e-01
    3.20000e+01    0.00000e+00    0.00000e+00    0.00000e+00    5.07492e+00    2.25540e+00    5.63917e-01    5.63941e-01    5.63785e-01    5.63941e-01    1.40958e-01    1.41012e-01    1.40958e-01    1.41012e-01    2.84801e+00    9.61384e-01    7.12002e-01    5.27677e-01    7.12002e-01    2.40346e-01    1.31919e-01    1.31919e-01    2.40346e-01
    3.30000e+01    0.00000e+00    0.00000e+00    0.00000e+00    5.07385e+00    2.25493e+00    5.63799e-01    5.63817e-01    5.63664e-01    5.63817e-01    1.40912e-01    1.40998e-01    1.40912e-01    1.40998e-01    2.84801e+00    9.61384e-01    7.12002e-01    5.27677e-01    7.12002e-01    2.40346e-01    1.31919e-01    1.31919e-01    2.40346e-01
    3.40000e+01    0.00000e+00    0.00000e+00    0.00000e+00    5.07286e+00    2.25451e+00    5.63684e-01    5.63695e-01    5.63576e-01    5.63695e-01    1.40871e-01    1.40983e-01    1.40871e-01    1.40983e-01    2.84801e+00    9.61384e-01    7.12002e-01    5.27677e-01    7.12002e-01    2.40346e-01    1.31919e-01    1.31919e-01    2.40346e-01
    3.50000e+01    0.00000e+00    0.00000e+00    0.00000e+00    5.07196e+00    2.25412e+00    5.63584e-01    5.63590e-01    5.63468e-01    5.63590e-01    1.40841e-01    1.40966e-01    1.40841e-01    1.40966e-01    2.84801e+00    9.61384e-01    7.12002e-01    5.27677e-01    7.12002e-01    2.40346e-01    1.31919e-01    1.31919e-01    2.40346e-01
    3.60000e+01    0.00000e+00    0.00000e+00    0.00000e+00    5.07121e+00    2.25380e+00    5.63487e-01    5.63485e-01    5.63419e-01    5.63485e-01    1.40826e-01    1.40943e-01    1.40826e-01    1.40943e-01    2.84801e+00    9.61384e-01    7.12002e-01    5.27677e-01    7.12002e-01    2.40346e-01    1.31919e-01    1.31919e-01    2.40346e-01
    3.70000e+01    0.00000e+00    0.00000e+00    0.00000e+00    5.07066e+00    2.25356e+00    5.63422e-01    5.63428e-01    5.63358e-01    5.63428e-01    1.40821e-01    1.40913e-01    1.40821e-01    1.40913e-01    2.84801e+00    9.61384e-01    7.12002e-01    5.27677e-01    7.12002e-01    2.40346e-01    1.31919e-01    1.31919e-01    2.40346e-01
    3.80000e+01    0.00000e+00    0.00000e+00    0.00000e+00    5.07023e+00    2.25338e+00    5.63363e-01    5.63372e-01    5.63313e-01    5.63372e-01    1.40833e-01    1.40885e-01    1.40833e-01    1.40885e-01    2.84801e+00    9.61384e-01    7.12002e-01    5.27677e-01    7.12002e-01    2.40346e-01    1.31919e-01    1.31919e-01    2.40346e-01
    3.90000e+01    0.00000e+00    0.00000e+00    0.00000e+00    5.06997e+00    2.25328e+00    5.63331e-01    5.63334e-01    5.63331e-01    5.63334e-01    1.40830e-01    1.40850e-01    1.40830e-01    1.40850e-01    2.84801e+00    9.61384e-01    7.12002e-01    5.27677e-01    7.12002e-01    2.40346e-01    1.31919e-01    1.31919e-01    2.40346e-01
    0.00000e+00    1.00000e+00    0.00000e+00    0.00000e+00    5.09013e+00    2.26241e+00    5.65480e-01    5.65692e-01    5.65480e-01    5.65572e-01    1.41348e-01    1.41399e-01    1.41348e-01    1.41399e-01    2.84801e+00    9.61384e-01    7.12002e-01    5.27677e-01    7.12002e-01    2.40346e-01    1.31919e-01    1.31919e-01    2.40346e-01
    1.00000e+00    1.00000e+00    1.02107e-04    6.93112e-05    5.09009e+00    2.26239e+00    5.65692e-01    5.65672e-01    5.65362e-01    5.65456e-01    1.41463e-01    1.41364e-01    1.41300e-01    1.41390e-01    2.84801e+00    9.61384e-01    7.12002e-01    5.27677e-01    7.12002e-01    2.40346e-01    1.31919e-01    1.31919e-01    2.40346e-01
    2.00000e+00    1.00000e+00    1.50439e-04    6.75670e-05    5.08988e+00    2.26229e+00    5.65815e-01    5.65618e-01    5.65284e-01    5.65403e-01    1.41462e-01    1.41337e-01    1.41280e-01    1.41390e-01    2.84801e+00    9.61384e-01    7.12002e-01    5.27677e-01    7.12002e-01    2.40346e-01    1.31919e-01    1.31919e-01    2.40346e-01
    3.00000e+00    1.00000e+00    1.74549e-04    7.91942e-05    5.08957e+00    2.26215e+00    5.65820e-01    5.65608e-01    5.65214e-01    5.65335e-01    1.41467e-01    1.41318e-01    1.41262e-01    1.41394e-01    2.84801e+00    9.61384e-01    7.12002e-01    5.27677e-01    7.12002e-01    2.40346e-01    1.31919e-01    1.31919e-01    2.40346e-01
    4.00000e+00    1.00000e+00    1.80097e-04    9.02857e-05    5.08916e+00    2.26197e+00    5.65817e-01    5.65548e-01    5.65188e-01    5.65244e-01    1.41482e-01    1.41296e-01    1.41260e-01    1.41362e-01    2.84801e+00    9.61384e-01    7.12002e-01    5.27677e-01    7.12002e-01    2.40346e-01    1.31919e-01    1.31919e-01    2.40346e-01
    5.00000e+00    1.00000e+00    1.58369e-04    9.45961e-05    5.08867e+00    2.26174e+00    5.65746e-01    5.65491e-01    5.65186e-01    5.65165e-01    1.41470e-01    1.41280e-01    1.41269e-01    1.41325e-01    2.84801e+00    9.61384e-01    7.12002e-01    5.27677e-01    7.12002e-01    2.40346e-01    1.31919e-01    1.31919e-01    2.40346e-01
    6.00000e+00    1.00000e+00    1.18980e-04    9.88393e-05    5.08809e+00    2.26147e+00    5.65627e-01    5.65424e-01    5.65198e-01    5.65083e-01    1.41458e-01    1.41264e-01    1.41289e-01    1.41271e-01    2.84801e+00    9.61384e-01    7.12002e-01    5.27677e-01    7.12002e-01    2.40346e-01    1.31919e-01    1.31919e-01    2.40346e-01
    7.00000e+00    1.00000e+00    6.57267e-05    9.81001e-05    5.08743e+00    2.26117e+00    5.65475e-01    5.65340e-01    5.65224e-01    5.65000e-01    1.41437e-01    1.41252e-01    1.41316e-01    1.41214e-01    2.84801e+00    9.61384e-01    7.12002e-01    5.27677e-01    7.12002e-01    2.40346e-01    1.31919e-01    1.31919e-01    2.40346e-01
    8.00000e+00    1.00000e+00    4.56373e-07    9.73076e-05    5.08671e+00    2.26084e+00    5.65294e-01    5.65257e-01    5.65261e-01    5.64917e-01    1.41410e-01    1.41239e-01    1.41347e-01    1.41146e-01    2.84801e+00    9.61384e-01    7.12002e-01    5.27677e-01    7.12002e-01    2.40346e-01    1.31919e-01    1.31919e-01    2.40346e-01
    9.00000e+00    1.00000e+00   -7.47226e-05    9.40594e-05    5.08596e+00    2.26050e+00    5.65089e-01    5.65165e-01    5.65311e-01    5.64836e-01    1.41377e-01    1.41230e-01    1.41381e-01    1.41076e-01    2.84801e+00    9.61384e-01    7.12002e-01    5.27677e-01    7.12002e-01    2.40346e-01    1.31919e-01    1.31919e-01    2.40346e-01
    1.00000e+01    1.00000e+00   -1.57501e-04    9.05176e-05    5.08521e+00    2.26015e+00    5.64869e-01    5.65076e-01    5.65371e-01    5.64758e-01    1.41341e-01    1.41223e-01    1.41419e-01    1.41003e-01    2.84801e+00    9.61384e-01    7.12002e-01    5.27677e-01    7.12002e-01    2.40346e-01    1.31919e-01    1.31919e-01    2.40346e-01
    1.10000e+01    1.00000e+00   -2.45360e-04    8.55630e-05    5.08449e+00    2.25982e+00    5.64641e-01    5.64988e-01    5.65441e-01    5.64687e-01    1.41302e-01    1.41221e-01    1.41459e-01    1.40930e-01    2.84801e+00    9.61384e-01    7.12002e-01    5.27677e-01    7.12002e-01    2.40346e-01    1.31919e-01    1.31919e-01    2.40346e-01
    1.20000e+01    1.00000e+00   -3.36094e-04    7.98119e-05    5.08383e+00    2.25952e+00    5.64413e-01    5.64908e-01    5.65520e-01    5.64626e-01    1.41263e-01    1.41220e-01    1.41501e-01    1.40858e-01    2.84801e+00    9.61384e-01    7.12002e-01    5.27677e-01    7.12002e-01    2.40346e-01    1.31919e-01    1.31919e-01    2.40346e-01
    1.30000e+01    1.00000e+00   -4.26928e-04    7.27722e-05    5.08325e+00    2.25925e+00    5.64190e-01    5.64837e-01    5.65606e-01    5.64579e-01    1.41224e-01    1.41223e-01    1.41545e-01    1.40791e-01    2.84801e+00    9.61384e-01    7.12002e-01    5.27677e-01    7.12002e-01    2.40346e-01    1.31919e-01    1.31919e-01    2.40346e-01
    1.40000e+01    1.00000e+00   -5.14878e-04    6.48463e-05    5.08277e+00    2.25903e+00    5.63982e-01    5.64777e-01    5.65696e-01    5.64546e-01    1.41188e-01    1.41229e-01    1.41590e-01    1.40728e-01    2.84801e+00    9.61384e-01    7.12002e-01    5.27677e-01    7.12002e-01    2.40346e-01    1.31919e-01    1.31919e-01    2.40346e-01
    1.50000e+01    1.00000e+00   -5.97300e-04    5.47886e-05    5.08240e+00    2.25886e+00    5.63792e-01    5.64729e-01    5.65787e-01    5.64533e-01    1.41155e-01    1.41235e-01    1.41635e-01    1.40674e-01    2.84801e+00    9.61384e-01    7.12002e-01    5.27677e-01    7.12002e-01    2.40346e-01    1.31919e-01    1.31919e-01    2.40346e-01
    1.60000e+01    1.00000e+00   -6.71790e-04    4.30616e-05    5.08214e+00    2.25874e+00    5.63627e-01    5.64693e-01    5.65875e-01    5.64537e-01    1.41127e-01    1.41243e-01    1.41679e-01    1.40628e-01    2.84801e+00    9.61384e-01    7.12002e-01    5.27677e-01    7.12002e-01    2.40346e-01    1.31919e-01    1.31919e-01    2.40346e-01
    1.70000e+01    1.00000e+00   -7.36137e-04    2.97652e-05    5.08199e+00    2.25866e+00    5.63488e-01    5.64667e-01    5.65954e-01    5.64557e-01    1.41104e-01    1.41250e-01    1.41721e-01    1.40592e-01    2.84801e+00    9.61384e-01    7.12002e-01    5.27677e-01    7.12002e-01    2.40346e-01    1.31919e-01    1.31919e-01    2.40346e-01
    1.80000e+01    1.00000e+00   -7.88697e-04    1.43129e-05    5.08192e+00    2.25861e+00    5.63376e-01    5.64648e-01    5.66021e-01    5.64592e-01    1.41086e-01    1.41255e-01    1.41759e-01    1.40565e-01    2.84801e+00    9.61384e-01    7.12002e-01    5.27677e-01    7.12002e-01    2.40346e-01    1.31919e-01    1.31919e-01    2.40346e-01
    1.90000e+01    1.00000e+00   -8.28326e-04   -3.32612e-06    5.08190e+00    2.25859e+00    5.63291e-01    5.64633e-01    5.66071e-01    5.64639e-01    1.41072e-01    1.41258e-01    1.41792e-01    1.40548e-01    2.84801e+00    9.61384e-01    7.12002e-01    5.27677e-01    7.12002e-01    2.40346e-01    1.31919e-01    1.31919e-01    2.40346e-01
    2.00000e+01    1.00000e+00   -8.54100e-04   -2.17598e-05    5.08189e+00    2.25858e+00    5.63231e-01    5.64620e-01    5.66097e-01    5.64689e-01    1.41062e-01    1.41257e-01    1.41819e-01    1.40541e-01    2.84801e+00    9.61384e-01    7.12002e-01    5.27677e-01    7.12002e-01    2.40346e-01    1.31919e-01    1.31919e-01    2.40346e-01
    2.10000e+01    1.00000e+00   -8.65529e-04   -4.12481e-05    5.08188e+00    2.25856e+00    5.63192e-01    5.64604e-01    5.66098e-01    5.64740e-01    1.41055e-01    1.41253e-01    1.41838e-01    1.40543e-01    2.84801e+00    9.61384e-01    7.12002e-01    5.27677e-01    7.12002e-01    2.40346e-01    1.31919e-01    1.31919e-01    2.40346e-01
    2.20000e+01    1.00000e+00   -8.62454e-04   -6.16472e-05    5.08181e+00    2.25851e+00    5.63172e-01    5.64582e-01    5.66067e-01    5.64789e-01    1.41049e-01    1.41242e-01    1.41846e-01    1.40552e-01    2.84801e+00    9.61384e-01    7.12002e-01    5.27677e-01    7.12002e-01    2.40346e-01    1.31919e-01    1.31919e-01    2.40346e-01
    2.30000e+01    1.00000e+00   -8.44759e-04   -8.13171e-05    5.08165e+00    2.25843e+00    5.63167e-01    5.64551e-01    5.66002e-01    5.64826e-01    1.41044e-01    1.41227e-01    1.41842e-01    1.40567e-01    2.84801e+00    9.61384e-01    7.12002e-01    5.27677e-01    7.12002e-01    2.40346e-01    1.31919e-01    1.31919e-01    2.40346e-01
    2.40000e+01    1.00000e+00   -8.12581e-04   -9.95140e-05    5.08139e+00    2.25829e+00    5.63175e-01    5.64509e-01    5.65901e-01    5.64847e-01    1.41040e-01    1.41207e-01    1.41825e-01    1.40589e-01    2.84801e+00    9.61384e-01    7.12002e-01    5.27677e-01    7.12002e-01    2.40346e-01    1.31919e-01    1.31919e-01    2.40346e-01
    2.50000e+01    1.00000e+00   -7.66400e-04   -1.16500e-04    5.08099e+00    2.25811e+00    5.63193e-01    5.64454e-01    5.65763e-01    5.64852e-01    1.41034e-01    1.41180e-01    1.41794e-01    1.40615e-01    2.84801e+00    9.61384e-01    7.12002e-01    5.27677e-01    7.12002e-01    2.40346e-01    1.31919e-01    1.31919e-01    2.40346e-01
    2.60000e+01    1.00000e+00   -7.06850e-04   -1.30786e-04    5.08045e+00    2.25786e+00    5.63220e-01    5.64386e-01    5.65588e-01    5.64835e-01    1.41028e-01    1.41149e-01    1.41747e-01    1.40645e-01    2.84801e+00    9.61384e-01    7.12002e-01    5.27677e-01    7.12002e-01    2.40346e-01    1.31919e-01    1.31919e-01    2.40346e-01
    2.70000e+01    1.00000e+00   -6.34913e-04   -1.41430e-04    5.07978e+00    2.25755e+00    5.63253e-01    5.64306e-01    5.65378e-01    5.64792e-01    1.41020e-01    1.41113e-01    1.41687e-01    1.40679e-01    2.84801e+00    9.61384e-01    7.12002e-01    5.27677e-01    7.12002e-01    2.40346e-01    1.31919e-01    1.31919e-01    2.40346e-01
    2.80000e+01    1.00000e+00   -5.52201e-04   -1.48566e-04    5.07897e+00    2.25719e+00    5.63292e-01    5.64214e-01    5.65138e-01    5.64726e-01    1.41011e-01    1.41073e-01    1.41612e-01    1.40714e-01    2.84801e+00    9.61384e-01    7.12002e-01    5.27677e-01    7.12002e-01    2.40346e-01    1.31919e-01    1.31919e-01    2.40346e-01
    2.90000e+01    1.00000e+00   -4.60886e-04   -1.51949e-04    5.07805e+00    2.25678e+00    5.63337e-01    5.64112e-01    5.64874e-01    5.64637e-01    1.41000e-01    1.41030e-01    1.41526e-01    1.40751e-01    2.84801e+00    9.61384e-01    7.12002e-01    5.27677e-01    7.12002e-01    2.40346e-01    1.31919e-01    1.31919e-01    2.40346e-01
    3.00000e+01    1.00000e+00   -3.63639e-04   -1.50552e-04    5.07704e+00    2.25633e+00    5.63385e-01    5.64005e-01    5.64594e-01    5.64526e-01    1.40989e-01    1.40986e-01    1.41429e-01    1.40789e-01    2.84801e+00    9.61384e-01    7.12002e-01    5.27677e-01    7.12002e-01    2.40346e-01    1.31919e-01    1.31919e-01    2.40346e-01
    3.10000e+01    1.00000e+00   -2.64006e-04   -1.44951e-04    5.07598e+00    2.25587e+00    5.63436e-01    5.63894e-01    5.64309e-01    5.64396e-01    1.40977e-01    1.40942e-01    1.41327e-01    1.40825e-01    2.84801e+00    9.61384e-01    7.12002e-01    5.27677e-01    7.12002e-01    2.40346e-01    1.31919e-01    1.31919e-01    2.40346e-01
    3.20000e+01    1.00000e+00   -1.66717e-04   -1.34866e-04    5.07490e+00    2.25540e+00    5.63488e-01    5.63785e-01    5.64034e-01    5.64252e-01    1.40963e-01    1.40901e-01    1.41221e-01    1.40860e-01    2.84801e+00    9.61384e-01    7.12002e-01    5.27677e-01    7.12002e-01    2.40346e-01    1.31919e-01    1.31919e-01    2.40346e-01
    3.30000e+01    1.00000e+00   -7.69541e-05   -1.21530e-04    5.07386e+00    2.25495e+00    5.63534e-01    5.63676e-01    5.63778e-01    5.64098e-01    1.40951e-01    1.40865e-01    1.41122e-01    1.40889e-01    2.84801e+00    9.61384e-01    7.12002e-01    5.27677e-01    7.12002e-01    2.40346e-01    1.31919e-01    1.31919e-01    2.40346e-01
    3.40000e+01    1.00000e+00    1.10226e-06   -1.04481e-04    5.07288e+00    2.25452e+00    5.63572e-01    5.63583e-01    5.63554e-01    5.63944e-01    1.40936e-01    1.40833e-01    1.41026e-01    1.40911e-01    2.84801e+00    9.61384e-01    7.12002e-01    5.27677e-01    7.12002e-01    2.40346e-01    1.31919e-01    1.31919e-01    2.40346e-01
    3.50000e+01    1.00000e+00    5.92495e-05   -8.35372e-05    5.07201e+00    2.25414e+00    5.63599e-01    5.63491e-01    5.63387e-01    5.63781e-01    1.40922e-01    1.40814e-01    1.40945e-01    1.40925e-01    2.84801e+00    9.61384e-01    7.12002e-01    5.27677e-01    7.12002e-01    2.40346e-01    1.31919e-01    1.31919e-01    2.40346e-01
    3.60000e+01    1.00000e+00    8.92892e-05   -5.46611e-05    5.07128e+00    2.25383e+00    5.63597e-01    5.63432e-01    5.63288e-01    5.63621e-01    1.40905e-01    1.40807e-01    1.40878e-01    1.40923e-01    2.84801e+00    9.61384e-01    7.12002e-01    5.27677e-01    7.12002e-01    2.40346e-01    1.31919e-01    1.31919e-01    2.40346e-01
    3.70000e+01    1.00000e+00    8.30477e-05   -3.50402e-05    5.07073e+00    2.25359e+00    5.63566e-01    5.63368e-01    5.63280e-01    5.63483e-01    1.40883e-01    1.40806e-01    1.40847e-01    1.40905e-01    2.84801e+00    9.61384e-01    7.12002e-01    5.27677e-01    7.12002e-01    2.40346e-01    1.31919e-01    1.31919e-01    2.40346e-01
    3.80000e+01    1.00000e+00    4.91325e-05   -1.83091e-05    5.07035e+00    2.25343e+00    5.63479e-01    5.63334e-01    5.63314e-01    5.63392e-01    1.40864e-01    1.40822e-01    1.40839e-01    1.40881e-01    2.84801e+00    9.61384e-01    7.12002e-01    5.27677e-01    7.12002e-01    2.40346e-01    1.31919e-01    1.31919e-01    2.40346e-01
    3.90000e+01    1.00000e+00    0.00000e+00    0.00000e+00    5.07020e+00    2.25336e+00    5.63393e-01    5.63312e-01    5.63393e-01    5.63353e-01    1.40838e-01    1.40858e-01    1.40838e-01    1.40858e-01    2.84801e+00    9.61384e-01    7.12002e-01    5.27677e-01    7.12002e-01    2.40346e-01    1.31919e-01    1.31919e-01    2.40346e-01
    0.00000e+00    2.00000e+00    0.00000e+00    0.00000e+00    5.09001e+00    2.26235e+00    5.65509e-01    5.65535e-01    5.65509e-01    5.65613e-01    1.41342e-01    1.41404e-01    1.41342e-01    1.41404e-01    2.84801e+00    9.61384e-01    7.12002e-01    5.27677e-01    7.12002e-01    2.40346e-01    1.31919e-01    1.31919e-01    2.40346e-01
    1.00000e+00    2.00000e+00    6.99722e-05    1.03626e-04    5.09003e+00    2.26236e+00    5.65647e-01    5.65741e-01    5.65429e-01    5.65369e-01    1.41441e-01    1.41379e-01    1.41295e-01    1.41371e-01    2.84801e+00    9.61384e-01    7.12002e-01    5.27677e-01    7.12002e-01    2.40346e-01    1.31919e-01    1.31919e-01    2.40346e-01
    2.00000e+00    2.00000e+00    9.07320e-05    1.48257e-04    5.08983e+00    2.26227e+00    5.65737e-01    5.65736e-01    5.65420e-01    5.65213e-01    1.41474e-01    1.41370e-01    1.41286e-01    1.41326e-01    2.84801e+00    9.61384e-01    7.12002e-01    5.27677e-01    7.12002e-01    2.40346e-01    1.31919e-01    1.31919e-01    2.40346e-01
    3.00000e+00    2.00000e+00    6.20692e-05    1.82757e-04    5.08951e+00    2.26212e+00    5.65677e-01    5.65715e-01    5.65474e-01    5.65084e-01    1.41496e-01    1.41374e-01    1.41289e-01    1.41281e-01    2.84801e+00    9.61384e-01    7.12002e-01    5.27677e-01    7.12002e-01    2.40346e-01    1.31919e-01    1.31919e-01    2.40346e-01
    4.00000e+00    2.00000e+00   -2.55981e-06    2.23413e-04    5.08914e+00    2.26195e+00    5.65560e-01    5.65713e-01    5.65572e-01    5.64945e-01    1.41500e-01    1.41384e-01    1.41315e-01    1.41199e-01    2.84801e+00    9.61384e-01    7.12002e-01    5.27677e-01    7.12002e-01    2.40346e-01    1.31919e-01    1.31919e-01    2.40346e-01
    5.00000e+00    2.00000e+00   -9.96673e-05    2.48327e-04    5.08863e+00    2.26172e+00    5.65367e-01    5.65672e-01    5.65707e-01    5.64818e-01    1.41478e-01    1.41402e-01    1.41357e-01    1.41114e-01    2.84801e+00    9.61384e-01    7.12002e-01    5.27677e-01    7.12002e-01    2.40346e-01    1.31919e-01    1.31919e-01    2.40346e-01