TITLE="LBM output"
VARIABLES = "X", "Y", "U","V","density","f0","f1","f2","f3","f4","f5","f6","f7","f8","feq0","feq1","feq2","feq3","feq4","feq5","feq6","feq7","feq8",
ZONE T = "fluid", I=40, J=40, F=POINT
SOLUTIONTIME=92
    0.00000e+00    0.00000e+00    0.00000e+00    0.00000e+00    4.95950e+00    2.20371e+00    5.51092e-01    5.51083e-01    5.51092e-01    5.51083e-01    1.37986e-01    1.37732e-01    1.37986e-01    1.37732e-01    2.78819e+00    9.41191e-01    6.97047e-01    5.16593e-01    6.97047e-01    2.35298e-01    1.29148e-01    1.29148e-01    2.35298e-01
    1.00000e+00    0.00000e+00    0.00000e+00    0.00000e+00    4.96267e+00    2.20483e+00    5.50850e-01    5.51766e-01    5.51413e-01    5.51766e-01    1.38222e-01    1.37800e-01    1.38222e-01    1.37800e-01    2.78819e+00    9.41191e-01    6.97047e-01    5.16593e-01    6.97047e-01    2.35298e-01    1.29148e-01    1.29148e-01    2.35298e-01
    2.00000e+00    0.00000e+00    0.00000e+00    0.00000e+00    4.96628e+00    2.20616e+00    5.51390e-01    5.52175e-01    5.51769e-01    5.52175e-01    1.38559e-01    1.37749e-01    1.38559e-01    1.37749e-01    2.78819e+00    9.41191e-01    6.97047e-01    5.16593e-01    6.97047e-01    2.35298e-01    1.29148e-01    1.29148e-01    2.35298e-01
    3.00000e+00    0.00000e+00    0.00000e+00    0.00000e+00    4.97131e+00    2.20819e+00    5.51618e-01    5.52879e-01    5.52453e-01    5.52879e-01    1.38975e-01    1.37669e-01    1.38975e-01    1.37669e-01    2.78819e+00    9.41191e-01    6.97047e-01    5.16593e-01    6.97047e-01    2.35298e-01    1.29148e-01    1.29148e-01    2.35298e-01
    4.00000e+00    0.00000e+00    0.00000e+00    0.00000e+00    4.97811e+00    2.21106e+00    5.52338e-01    5.53685e-01    5.53202e-01    5.53685e-01    1.39408e-01    1.37660e-01    1.39408e-01    1.37660e-01    2.78819e+00    9.41191e-01    6.97047e-01    5.16593e-01    6.97047e-01    2.35298e-01    1.29148e-01    1.29148e-01    2.35298e-01
    5.00000e+00    0.00000e+00    0.00000e+00    0.00000e+00    4.98552e+00    2.21427e+00    5.53073e-01    5.54578e-01    5.54064e-01    5.54578e-01    1.39857e-01    1.37626e-01    1.39857e-01    1.37626e-01    2.78819e+00    9.41191e-01    6.97047e-01    5.16593e-01    6.97047e-01    2.35298e-01    1.29148e-01    1.29148e-01    2.35298e-01
    6.00000e+00    0.00000e+00    0.00000e+00    0.00000e+00    4.99370e+00    2.21791e+00    5.53918e-01    5.55526e-01    5.54998e-01    5.55526e-01    1.40273e-01    1.37639e-01    1.40273e-01    1.37639e-01    2.78819e+00    9.41191e-01    6.97047e-01    5.16593e-01    6.97047e-01    2.35298e-01    1.29148e-01    1.29148e-01    2.35298e-01
    7.00000e+00    0.00000e+00    0.00000e+00    0.00000e+00    5.00148e+00    2.22152e+00    5.54921e-01    5.56325e-01    5.55834e-01    5.56325e-01    1.40619e-01    1.37657e-01    1.40619e-01    1.37657e-01    2.78819e+00    9.41191e-01    6.97047e-01    5.16593e-01    6.97047e-01    2.35298e-01    1.29148e-01    1.29148e-01    2.35298e-01
    8.00000e+00    0.00000e+00    0.00000e+00    0.00000e+00    5.00819e+00    2.22476e+00    5.55768e-01    5.56989e-01    5.56579e-01    5.56989e-01    1.40880e-01    1.37669e-01    1.40880e-01    1.37669e-01    2.78819e+00    9.41191e-01    6.97047e-01    5.16593e-01    6.97047e-01    2.35298e-01    1.29148e-01    1.29148e-01    2.35298e-01
    9.00000e+00    0.00000e+00    0.00000e+00    0.00000e+00    5.01346e+00    2.22745e+00    5.56574e-01    5.57440e-01    5.57139e-01    5.57440e-01    1.41033e-01    1.37677e-01    1.41033e-01    1.37677e-01    2.78819e+00    9.41191e-01    6.97047e-01    5.16593e-01    6.97047e-01    2.35298e-01    1.29148e-01    1.29148e-01    2.35298e-01
    1.00000e+01    0.00000e+00    0.00000e+00    0.00000e+00    5.01696e+00    2.22938e+00    5.57163e-01    5.57676e-01    5.57515e-01    5.57676e-01    1.41093e-01    1.37682e-01    1.41093e-01    1.37682e-01    2.78819e+00    9.41191e-01    6.97047e-01    5.16593e-01    6.97047e-01    2.35298e-01    1.29148e-01    1.29148e-01    2.35298e-01
    1.10000e+01    0.00000e+00    0.00000e+00    0.00000e+00    5.01882e+00    2.23056e+00    5.57570e-01    5.57725e-01    5.57711e-01    5.57725e-01    1.41073e-01    1.37689e-01    1.41073e-01    1.37689e-01    2.78819e+00    9.41191e-01    6.97047e-01    5.16593e-01    6.97047e-01    2.35298e-01    1.29148e-01    1.29148e-01    2.35298e-01
    1.20000e+01    0.00000e+00    0.00000e+00    0.00000e+00    5.01932e+00    2.23107e+00    5.57773e-01    5.57649e-01    5.57767e-01    5.57649e-01    1.41000e-01    1.37703e-01    1.41000e-01    1.37703e-01    2.78819e+00    9.41191e-01    6.97047e-01    5.16593e-01    6.97047e-01    2.35298e-01    1.29148e-01    1.29148e-01    2.35298e-01
    1.30000e+01    0.00000e+00    0.00000e+00    0.00000e+00    5.01890e+00    2.23108e+00    5.57825e-01    5.57507e-01    5.57725e-01    5.57507e-01    1.40901e-01    1.37729e-01    1.40901e-01    1.37729e-01    2.78819e+00    9.41191e-01    6.97047e-01    5.16593e-01    6.97047e-01    2.35298e-01    1.29148e-01    1.29148e-01    2.35298e-01
    1.40000e+01    0.00000e+00    0.00000e+00    0.00000e+00    5.01803e+00    2.23078e+00    5.57767e-01    5.57354e-01    5.57635e-01    5.57354e-01    1.40802e-01    1.37766e-01    1.40802e-01    1.37766e-01    2.78819e+00    9.41191e-01    6.97047e-01    5.16593e-01    6.97047e-01    2.35298e-01    1.29148e-01    1.29148e-01    2.35298e-01
    1.50000e+01    0.00000e+00    0.00000e+00    0.00000e+00    5.01709e+00    2.23037e+00    5.57658e-01    5.57232e-01    5.57537e-01    5.57232e-01    1.40718e-01    1.37814e-01    1.40718e-01    1.37814e-01    2.78819e+00    9.41191e-01    6.97047e-01    5.16593e-01    6.97047e-01    2.35298e-01    1.29148e-01    1.29148e-01    2.35298e-01
    1.60000e+01    0.00000e+00    0.00000e+00    0.00000e+00    5.01636e+00    2.22999e+00    5.57541e-01    5.57162e-01    5.57460e-01    5.57162e-01    1.40657e-01    1.37867e-01    1.40657e-01    1.37867e-01    2.78819e+00    9.41191e-01    6.97047e-01    5.16593e-01    6.97047e-01    2.35298e-01    1.29148e-01    1.29148e-01    2.35298e-01
    1.70000e+01    0.00000e+00    0.00000e+00    0.00000e+00    5.01598e+00    2.22973e+00    5.57449e-01    5.57148e-01    5.57419e-01    5.57148e-01    1.40621e-01    1.37922e-01    1.40621e-01    1.37922e-01    2.78819e+00    9.41191e-01    6.97047e-01    5.16593e-01    6.97047e-01    2.35298e-01    1.29148e-01    1.29148e-01    2.35298e-01
    1.80000e+01    0.00000e+00    0.00000e+00    0.00000e+00    5.01596e+00    2.22962e+00    5.57399e-01    5.57180e-01    5.57414e-01    5.57180e-01    1.40607e-01    1.37974e-01    1.40607e-01    1.37974e-01    2.78819e+00    9.41191e-01    6.97047e-01    5.16593e-01    6.97047e-01    2.35298e-01    1.29148e-01    1.29148e-01    2.35298e-01
    1.90000e+01    0.00000e+00    0.00000e+00    0.00000e+00    5.01624e+00    2.22967e+00    5.57391e-01    5.57244e-01    5.57442e-01    5.57244e-01    1.40606e-01    1.38021e-01    1.40606e-01    1.38021e-01    2.78819e+00    9.41191e-01    6.97047e-01    5.16593e-01    6.97047e-01    2.35298e-01    1.29148e-01    1.29148e-01    2.35298e-01
    2.00000e+01    0.00000e+00    0.00000e+00    0.00000e+00    5.01673e+00    2.22982e+00    5.57419e-01    5.57323e-01    5.57490e-01    5.57323e-01    1.40615e-01    1.38062e-01    1.40615e-01    1.38062e-01    2.78819e+00    9.41191e-01    6.97047e-01    5.16593e-01    6.97047e-01    2.35298e-01    1.29148e-01    1.29148e-01    2.35298e-01
    2.10000e+01    0.00000e+00    0.00000e+00    0.00000e+00    5.01733e+00    2.23005e+00    5.57472e-01    5.57405e-01    5.57550e-01    5.57405e-01    1.40628e-01    1.38096e-01    1.40628e-01    1.38096e-01    2.78819e+00    9.41191e-01    6.97047e-01    5.16593e-01    6.97047e-01    2.35298e-01    1.29148e-01    1.29148e-01    2.35298e-01
    2.20000e+01    0.00000e+00    0.00000e+00    0.00000e+00    5.01795e+00    2.23031e+00    5.57537e-01    5.57482e-01    5.57614e-01    5.57482e-01    1.40642e-01    1.38125e-01    1.40642e-01    1.38125e-01    2.78819e+00    9.41191e-01    6.97047e-01    5.16593e-01    6.97047e-01    2.35298e-01    1.29148e-01    1.29148e-01    2.35298e-01
    2.30000e+01    0.00000e+00    0.00000e+00    0.00000e+00    5.01857e+00    2.23058e+00    5.57606e-01    5.57549e-01    5.57681e-01    5.57549e-01    1.40653e-01    1.38151e-01    1.40653e-01    1.38151e-01    2.78819e+00    9.41191e-01    6.97047e-01    5.16593e-01    6.97047e-01    2.35298e-01    1.29148e-01    1.29148e-01    2.35298e-01
    2.40000e+01    0.00000e+00    0.00000e+00    0.00000e+00    5.01917e+00    2.23085e+00    5.57676e-01    5.57609e-01    5.57748e-01    5.57609e-01    1.40662e-01    1.38174e-01    1.40662e-01    1.38174e-01    2.78819e+00    9.41191e-01    6.97047e-01    5.16593e-01    6.97047e-01    2.35298e-01    1.29148e-01    1.29148e-01    2.35298e-01
    2.50000e+01    0.00000e+00    0.00000e+00    0.00000e+00    5.01978e+00    2.23115e+00    5.57747e-01    5.57665e-01    5.57825e-01    5.57665e-01    1.40669e-01    1.38198e-01    1.40669e-01    1.38198e-01    2.78819e+00    9.41191e-01    6.97047e-01    5.16593e-01    6.97047e-01    2.35298e-01    1.29148e-01    1.29148e-01    2.35298e-01
    2.60000e+01    0.00000e+00    0.00000e+00    0.00000e+00    5.02045e+00    2.23148e+00    5.57826e-01    5.57721e-01    5.57912e-01    5.57721e-01    1.40669e-01    1.38226e-01    1.40669e-01    1.38226e-01    2.78819e+00    9.41191e-01    6.97047e-01    5.16593e-01    6.97047e-01    2.35298e-01    1.29148e-01    1.29148e-01    2.35298e-01
    2.70000e+01    0.00000e+00    0.00000e+00    0.00000e+00    5.02126e+00    2.23189e+00    5.57915e-01    5.57787e-01    5.58031e-01    5.57787e-01    1.40664e-01    1.38262e-01    1.40664e-01    1.38262e-01    2.78819e+00    9.41191e-01    6.97047e-01    5.16593e-01    6.97047e-01    2.35298e-01    1.29148e-01    1.29148e-01    2.35298e-01
    2.80000e+01    0.00000e+00    0.00000e+00    0.00000e+00    5.02229e+00    2.23241e+00    5.58030e-01    5.57876e-01    5.58173e-01    5.57876e-01    1.40654e-01    1.38309e-01    1.40654e-01    1.38309e-01    2.78819e+00    9.41191e-01    6.97047e-01    5.16593e-01    6.97047e-01    2.35298e-01    1.29148e-01    1.29148e-01    2.35298e-01
    2.90000e+01    0.00000e+00    0.00000e+00    0.00000e+00    5.02368e+00    2.23310e+00    5.58174e-01    5.57995e-01    5.58382e-01    5.57995e-01    1.40645e-01    1.38376e-01    1.40645e-01    1.38376e-01    2.78819e+00    9.41191e-01    6.97047e-01    5.16593e-01    6.97047e-01    2.35298e-01    1.29148e-01    1.29148e-01    2.35298e-01
    3.00000e+01    0.00000e+00    0.00000e+00    0.00000e+00    5.02559e+00    2.23401e+00    5.58367e-01    5.58180e-01    5.58636e-01    5.58180e-01    1.40641e-01    1.38468e-01    1.40641e-01    1.38468e-01    2.78819e+00    9.41191e-01    6.97047e-01    5.16593e-01    6.97047e-01    2.35298e-01    1.29148e-01    1.29148e-01    2.35298e-01
    3.10000e+01    0.00000e+00    0.00000e+00    0.00000e+00    5.02826e+00    2.23524e+00    5.58618e-01    5.58455e-01    5.59026e-01    5.58455e-01    1.40651e-01    1.38579e-01    1.40651e-01    1.38579e-01    2.78819e+00    9.41191e-01    6.97047e-01    5.16593e-01    6.97047e-01    2.35298e-01    1.29148e-01    1.29148e-01    2.35298e-01
    3.20000e+01    0.00000e+00    0.00000e+00    0.00000e+00    5.03148e+00    2.23671e+00    5.58968e-01    5.58824e-01    5.59364e-01    5.58824e-01    1.40666e-01    1.38729e-01    1.40666e-01    1.38729e-01    2.78819e+00    9.41191e-01    6.97047e-01    5.16593e-01    6.97047e-01    2.35298e-01    1.29148e-01    1.29148e-01    2.35298e-01
    3.30000e+01    0.00000e+00    0.00000e+00    0.00000e+00    5.03559e+00    2.23861e+00    5.59342e-01    5.59210e-01    5.60002e-01    5.59210e-01    1.40715e-01    1.38893e-01    1.40715e-01    1.38893e-01    2.78819e+00    9.41191e-01    6.97047e-01    5.16593e-01    6.97047e-01    2.35298e-01    1.29148e-01    1.29148e-01    2.35298e-01
    3.40000e+01    0.00000e+00    0.00000e+00    0.00000e+00    5.04021e+00    2.24069e+00    5.59905e-01    5.59775e-01    5.60428e-01    5.59775e-01    1.40727e-01    1.39095e-01    1.40727e-01    1.39095e-01    2.78819e+00    9.41191e-01    6.97047e-01    5.16593e-01    6.97047e-01    2.35298e-01    1.29148e-01    1.29148e-01    2.35298e-01
    3.50000e+01    0.00000e+00    0.00000e+00    0.00000e+00    5.04337e+00    2.24214e+00    5.60365e-01    5.60178e-01    5.60620e-01    5.60178e-01    1.40610e-01    1.39336e-01    1.40610e-01    1.39336e-01    2.78819e+00    9.41191e-01    6.97047e-01    5.16593e-01    6.97047e-01    2.35298e-01    1.29148e-01    1.29148e-01    2.35298e-01
    3.60000e+01    0.00000e+00    0.00000e+00    0.00000e+00    5.04726e+00    2.24401e+00    5.60689e-01    5.60391e-01    5.61469e-01    5.60391e-01    1.40624e-01    1.39529e-01    1.40624e-01    1.39529e-01    2.78819e+00    9.41191e-01    6.97047e-01    5.16593e-01    6.97047e-01    2.35298e-01    1.29148e-01    1.29148e-01    2.35298e-01
    3.70000e+01    0.00000e+00    0.00000e+00    0.00000e+00    5.04971e+00    2.24496e+00    5.61276e-01    5.60978e-01    5.61087e-01    5.60978e-01    1.40428e-01    1.39787e-01    1.40428e-01    1.39787e-01    2.78819e+00    9.41191e-01    6.97047e-01    5.16593e-01    6.97047e-01    2.35298e-01    1.29148e-01    1.29148e-01    2.35298e-01
    3.80000e+01    0.00000e+00    0.00000e+00    0.00000e+00    5.05005e+00    2.24485e+00    5.61130e-01    5.60938e-01    5.61390e-01    5.60938e-01    1.40320e-01    1.40078e-01    1.40320e-01    1.40078e-01    2.78819e+00    9.41191e-01    6.97047e-01    5.16593e-01    6.97047e-01    2.35298e-01    1.29148e-01    1.29148e-01    2.35298e-01
    3.90000e+01    0.00000e+00    0.00000e+00    0.00000e+00    5.05167e+00    2.24542e+00    5.61274e-01    5.61296e-01    5.61274e-01    5.61296e-01    1.40339e-01    1.40214e-01    1.40339e-01    1.40214e-01    2.78819e+00    9.41191e-01    6.97047e-01    5.16593e-01    6.97047e-01    2.35298e-01    1.29148e-01    1.29148e-01    2.35298e-01
    0.00000e+00    1.00000e+00    0.00000e+00    0.00000e+00    4.96281e+00    2.20489e+00    5.51799e-01    5.50847e-01    5.51799e-01    5.51470e-01    1.38192e-01    1.37808e-01    1.38192e-01    1.37808e-01    2.78819e+00    9.41191e-01    6.97047e-01    5.16593e-01    6.97047e-01    2.35298e-01    1.29148e-01    1.29148e-01    2.35298e-01
    1.00000e+00    1.00000e+00   -5.55376e-04   -4.74843e-04    4.96450e+00    2.20552e+00    5.50915e-01    5.50926e-01    5.52702e-01    5.52424e-01    1.37607e-01    1.37972e-01    1.38522e-01    1.37916e-01    2.78819e+00    9.41191e-01    6.97047e-01    5.16593e-01    6.97047e-01    2.35298e-01    1.29148e-01    1.29148e-01    2.35298e-01
    2.00000e+00    1.00000e+00   -1.05188e-03   -5.35511e-04    4.96791e+00    2.20685e+00    5.50437e-01    5.51189e-01    5.53989e-01    5.52899e-01    1.37575e-01    1.38225e-01    1.38888e-01    1.37863e-01    2.78819e+00    9.41191e-01    6.97047e-01    5.16593e-01    6.97047e-01    2.35298e-01    1.29148e-01    1.29148e-01    2.35298e-01
    3.00000e+00    1.00000e+00   -1.66563e-03   -6.43134e-04    4.97286e+00    2.20888e+00    5.50070e-01    5.51527e-01    5.55648e-01    5.53595e-01    1.37482e-01    1.38520e-01    1.39399e-01    1.37733e-01    2.78819e+00    9.41191e-01    6.97047e-01    5.16593e-01    6.97047e-01    2.35298e-01    1.29148e-01    1.29148e-01    2.35298e-01
    4.00000e+00    1.00000e+00   -2.30848e-03   -7.59576e-04    4.97911e+00    2.21154e+00    5.49576e-01    5.52149e-01    5.57350e-01    5.54570e-01    1.37400e-01    1.38879e-01    1.39941e-01    1.37699e-01    2.78819e+00    9.41191e-01    6.97047e-01    5.16593e-01    6.97047e-01    2.35298e-01    1.29148e-01    1.29148e-01    2.35298e-01
    5.00000e+00    1.00000e+00   -2.90296e-03   -8.28721e-04    4.98611e+00    2.21460e+00    5.49317e-01    5.52833e-01    5.59104e-01    5.55511e-01    1.37387e-01    1.39260e-01    1.40458e-01    1.37643e-01    2.78819e+00    9.41191e-01    6.97047e-01    5.16593e-01    6.97047e-01    2.35298e-01    1.29148e-01    1.29148e-01    2.35298e-01
    6.00000e+00    1.00000e+00   -3.44883e-03   -8.50103e-04    4.99349e+00    2.21792e+00    5.49163e-01    5.53647e-01    5.60825e-01    5.56382e-01    1.37385e-01    1.39639e-01    1.40920e-01    1.37614e-01    2.78819e+00    9.41191e-01    6.97047e-01    5.16593e-01    6.97047e-01    2.35298e-01    1.29148e-01    1.29148e-01    2.35298e-01
    7.00000e+00    1.00000e+00   -3.91486e-03   -7.80651e-04    5.00054e+00    2.22118e+00    5.49096e-01    5.54566e-01    5.62359e-01    5.57069e-01    1.37433e-01    1.39998e-01    1.41290e-01    1.37541e-01    2.78819e+00    9.41191e-01    6.97047e-01    5.16593e-01    6.97047e-01    2.35298e-01    1.29148e-01    1.29148e-01    2.35298e-01
    8.00000e+00    1.00000e+00   -4.28120e-03   -6.50769e-04    5.00668e+00    2.22413e+00    5.49120e-01    5.55428e-01    5.63641e-01    5.57505e-01    1.37522e-01    1.40314e-01    1.41569e-01    1.37448e-01    2.78819e+00    9.41191e-01    6.97047e-01    5.16593e-01    6.97047e-01    2.35298e-01    1.29148e-01    1.29148e-01    2.35298e-01
    9.00000e+00    1.00000e+00   -4.54199e-03   -4.69165e-04    5.01156e+00    2.22659e+00    5.49189e-01    5.56230e-01    5.64603e-01    5.57706e-01    1.37630e-01    1.40559e-01    1.41741e-01    1.37322e-01    2.78819e+00    9.41191e-01    6.97047e-01    5.16593e-01    6.97047e-01    2.35298e-01    1.29148e-01    1.29148e-01    2.35298e-01
    1.00000e+01    1.00000e+00   -4.69906e-03   -2.59735e-04    5.01501e+00    2.22842e+00    5.49296e-01    5.56890e-01    5.65240e-01    5.57679e-01    1.37762e-01    1.40723e-01    1.41830e-01    1.37169e-01    2.78819e+00    9.41191e-01    6.97047e-01    5.16593e-01    6.97047e-01    2.35298e-01    1.29148e-01    1.29148e-01    2.35298e-01
    1.10000e+01    1.00000e+00   -4.76621e-03   -5.65816e-05    5.01708e+00    2.22963e+00    5.49412e-01    5.57389e-01    5.65573e-01    5.57515e-01    1.37893e-01    1.40807e-01    1.41849e-01    1.37009e-01    2.78819e+00    9.41191e-01    6.97047e-01    5.16593e-01    6.97047e-01    2.35298e-01    1.29148e-01    1.29148e-01    2.35298e-01
    1.20000e+01    1.00000e+00   -4.76100e-03    1.14141e-04    5.01800e+00    2.23029e+00    5.49535e-01    5.57708e-01    5.65661e-01    5.57280e-01    1.38018e-01    1.40820e-01    1.41829e-01    1.36865e-01    2.78819e+00    9.41191e-01    6.97047e-01    5.16593e-01    6.97047e-01    2.35298e-01    1.29148e-01    1.29148e-01    2.35298e-01
    1.30000e+01    1.00000e+00   -4.70619e-03    2.36389e-04    5.01812e+00    2.23051e+00    5.49656e-01    5.57872e-01    5.65577e-01    5.57048e-01    1.38125e-01    1.40781e-01    1.41792e-01    1.36753e-01    2.78819e+00    9.41191e-01    6.97047e-01    5.16593e-01    6.97047e-01    2.35298e-01    1.29148e-01    1.29148e-01    2.35298e-01
    1.40000e+01    1.00000e+00   -4.62372e-03    3.04406e-04    5.01776e+00    2.23046e+00    5.49771e-01    5.57910e-01    5.65396e-01    5.56870e-01    1.38210e-01    1.40711e-01    1.41754e-01    1.36680e-01    2.78819e+00    9.41191e-01    6.97047e-01    5.16593e-01    6.97047e-01    2.35298e-01    1.29148e-01    1.29148e-01    2.35298e-01
    1.50000e+01    1.00000e+00   -4.53131e-03    3.21662e-04    5.01724e+00    2.23026e+00    5.49880e-01    5.57868e-01    5.65181e-01    5.56777e-01    1.38269e-01    1.40629e-01    1.41724e-01    1.36651e-01    2.78819e+00    9.41191e-01    6.97047e-01    5.16593e-01    6.97047e-01    2.35298e-01    1.29148e-01    1.29148e-01    2.35298e-01
    1.60000e+01    1.00000e+00   -4.44125e-03    3.01252e-04    5.01678e+00    2.23004e+00    5.49985e-01    5.57787e-01    5.64975e-01    5.56765e-01    1.38306e-01    1.40552e-01    1.41706e-01    1.36662e-01    2.78819e+00    9.41191e-01    6.97047e-01    5.16593e-01    6.97047e-01    2.35298e-01    1.29148e-01    1.29148e-01    2.35298e-01
    1.70000e+01    1.00000e+00   -4.36013e-03    2.58882e-04    5.01651e+00    2.22988e+00    5.50089e-01    5.57701e-01    5.64803e-01    5.56820e-01    1.38329e-01    1.40490e-01    1.41699e-01    1.36703e-01    2.78819e+00    9.41191e-01    6.97047e-01    5.16593e-01    6.97047e-01    2.35298e-01    1.29148e-01    1.29148e-01    2.35298e-01
    1.80000e+01    1.00000e+00   -4.28960e-03    2.08035e-04    5.01647e+00    2.22980e+00    5.50196e-01    5.57635e-01    5.64674e-01    5.56921e-01    1.38341e-01    1.40447e-01    1.41697e-01    1.36762e-01    2.78819e+00    9.41191e-01    6.97047e-01    5.16593e-01    6.97047e-01    2.35298e-01    1.29148e-01    1.29148e-01    2.35298e-01
    1.90000e+01    1.00000e+00   -4.22840e-03    1.59409e-04    5.01666e+00    2.22982e+00    5.50310e-01    5.57600e-01    5.64584e-01    5.57046e-01    1.38348e-01    1.40422e-01    1.41695e-01    1.36830e-01    2.78819e+00    9.41191e-01    6.97047e-01    5.16593e-01    6.97047e-01    2.35298e-01    1.29148e-01    1.29148e-01    2.35298e-01
    2.00000e+01    1.00000e+00   -4.17357e-03    1.20190e-04    5.01703e+00    2.22994e+00    5.50433e-01    5.57598e-01    5.64524e-01    5.57172e-01    1.38357e-01    1.40413e-01    1.41692e-01    1.36901e-01    2.78819e+00    9.41191e-01    6.97047e-01    5.16593e-01    6.97047e-01    2.35298e-01    1.29148e-01    1.29148e-01    2.35298e-01
    2.10000e+01    1.00000e+00   -4.12174e-03    9.27528e-05    5.01751e+00    2.23012e+00    5.50564e-01    5.57625e-01    5.64483e-01    5.57289e-01    1.38368e-01    1.40415e-01    1.41684e-01    1.36969e-01    2.78819e+00    9.41191e-01    6.97047e-01    5.16593e-01    6.97047e-01    2.35298e-01    1.29148e-01    1.29148e-01    2.35298e-01
    2.20000e+01    1.00000e+00   -4.06975e-03    7.58273e-05    5.01808e+00    2.23034e+00    5.50705e-01    5.57674e-01    5.64451e-01    5.57396e-01    1.38381e-01    1.40423e-01    1.41669e-01    1.37034e-01    2.78819e+00    9.41191e-01    6.97047e-01    5.16593e-01    6.97047e-01    2.35298e-01    1.29148e-01    1.29148e-01    2.35298e-01
    2.30000e+01    1.00000e+00   -4.01429e-03    6.91643e-05    5.01869e+00    2.23061e+00    5.50858e-01    5.57740e-01    5.64419e-01    5.57486e-01    1.38398e-01    1.40437e-01    1.41644e-01    1.37098e-01    2.78819e+00    9.41191e-01    6.97047e-01    5.16593e-01    6.97047e-01    2.35298e-01    1.29148e-01    1.29148e-01    2.35298e-01
    2.40000e+01    1.00000e+00   -3.95166e-03    7.13166e-05    5.01934e+00    2.23090e+00    5.51026e-01    5.57821e-01    5.64379e-01    5.57563e-01    1.38419e-01    1.40454e-01    1.41610e-01    1.37162e-01    2.78819e+00    9.41191e-01    6.97047e-01    5.16593e-01    6.97047e-01    2.35298e-01    1.29148e-01    1.29148e-01    2.35298e-01
    2.50000e+01    1.00000e+00   -3.87703e-03    8.08170e-05    5.02004e+00    2.23124e+00    5.51219e-01    5.57917e-01    5.64323e-01    5.57632e-01    1.38444e-01    1.40471e-01    1.41562e-01    1.37231e-01    2.78819e+00    9.41191e-01    6.97047e-01    5.16593e-01    6.97047e-01    2.35298e-01    1.29148e-01    1.29148e-01    2.35298e-01
    2.60000e+01    1.00000e+00   -3.78524e-03    9.88337e-05    5.02082e+00    2.23162e+00    5.51447e-01    5.58032e-01    5.64248e-01    5.57695e-01    1.38475e-01    1.40489e-01    1.41498e-01    1.37308e-01    2.78819e+00    9.41191e-01    6.97047e-01    5.16593e-01    6.97047e-01    2.35298e-01    1.29148e-01    1.29148e-01    2.35298e-01
    2.70000e+01    1.00000e+00   -3.67078e-03    1.24799e-04    5.02174e+00    2.23209e+00    5.51726e-01    5.58175e-01    5.64146e-01    5.57755e-01    1.38518e-01    1.40509e-01    1.41421e-01    1.37398e-01    2.78819e+00    9.41191e-01    6.97047e-01    5.16593e-01    6.97047e-01    2.35298e-01    1.29148e-01    1.29148e-01    2.35298e-01
    2.80000e+01    1.00000e+00   -3.52897e-03    1.56898e-04    5.02287e+00    2.23266e+00    5.52074e-01    5.58348e-01    5.64025e-01    5.57828e-01    1.38576e-01    1.40528e-01    1.41330e-01    1.37506e-01    2.78819e+00    9.41191e-01    6.97047e-01    5.16593e-01    6.97047e-01    2.35298e-01    1.29148e-01    1.29148e-01    2.35298e-01
    2.90000e+01    1.00000e+00   -3.35813e-03    1.93297e-04    5.02434e+00    2.23338e+00    5.52508e-01    5.58568e-01    5.63889e-01    5.57936e-01    1.38653e-01    1.40547e-01    1.41229e-01    1.37631e-01    2.78819e+00    9.41191e-01    6.97047e-01    5.16593e-01    6.97047e-01    2.35298e-01    1.29148e-01    1.29148e-01    2.35298e-01
    3.00000e+01    1.00000e+00   -3.16571e-03    2.33728e-04    5.02629e+00    2.23431e+00    5.53043e-01    5.58830e-01    5.63785e-01    5.58070e-01    1.38751e-01    1.40581e-01    1.41128e-01    1.37789e-01    2.78819e+00    9.41191e-01    6.97047e-01    5.16593e-01    6.97047e-01    2.35298e-01    1.29148e-01    1.29148e-01    2.35298e-01
    3.10000e+01    1.00000e+00   -2.95477e-03    2.60088e-04    5.02885e+00    2.23550e+00    5.53669e-01    5.59158e-01    5.63706e-01    5.58311e-01    1.38872e-01    1.40609e-01    1.41052e-01    1.37967e-01    2.78819e+00    9.41191e-01    6.97047e-01    5.16593e-01    6.97047e-01    2.35298e-01    1.29148e-01    1.29148e-01    2.35298e-01
    3.20000e+01    1.00000e+00   -2.73098e-03    2.85404e-04    5.03201e+00    2.23696e+00    5.54401e-01    5.59511e-01    5.63693e-01    5.58594e-01    1.39019e-01    1.40670e-01    1.40984e-01    1.38184e-01    2.78819e+00    9.41191e-01    6.97047e-01    5.16593e-01    6.97047e-01    2.35298e-01    1.29148e-01    1.29148e-01    2.35298e-01
    3.30000e+01    1.00000e+00   -2.47732e-03    3.20261e-04    5.03576e+00    2.23868e+00    5.55200e-01    5.60030e-01    5.63634e-01    5.58992e-01    1.39182e-01    1.40718e-01    1.40916e-01    1.38410e-01    2.78819e+00    9.41191e-01    6.97047e-01    5.16593e-01    6.97047e-01    2.35298e-01    1.29148e-01    1.29148e-01    2.35298e-01
    3.40000e+01    1.00000e+00   -2.17229e-03    2.89711e-04    5.03969e+00    2.24049e+00    5.56129e-01    5.60457e-01    5.63526e-01    5.59495e-01    1.39346e-01    1.40696e-01    1.40872e-01    1.38672e-01    2.78819e+00    9.41191e-01    6.97047e-01    5.16593e-01    6.97047e-01    2.35298e-01    1.29148e-01    1.29148e-01    2.35298e-01
    3.50000e+01    1.00000e+00   -1.82021e-03    3.04621e-04    5.04304e+00    2.24205e+00    5.57065e-01    5.60762e-01    5.63291e-01    5.59850e-01    1.39563e-01    1.40758e-01    1.40728e-01    1.38969e-01    2.78819e+00    9.41191e-01    6.97047e-01    5.16593e-01    6.97047e-01    2.35298e-01    1.29148e-01    1.29148e-01    2.35298e-01
    3.60000e+01    1.00000e+00   -1.32095e-03    3.26309e-04    5.04613e+00    2.24348e+00    5.58017e-01    5.61421e-01    5.62523e-01    5.60358e-01    1.39806e-01    1.40655e-01    1.40593e-01    1.39283e-01    2.78819e+00    9.41191e-01    6.97047e-01    5.16593e-01    6.97047e-01    2.35298e-01    1.29148e-01    1.29148e-01    2.35298e-01
    3.70000e+01    1.00000e+00   -8.21354e-04    2.20768e-04    5.04828e+00    2.24441e+00    5.59352e-01    5.61333e-01    5.62187e-01    5.60589e-01    1.39951e-01    1.40439e-01    1.40422e-01    1.39598e-01    2.78819e+00    9.41191e-01    6.97047e-01    5.16593e-01    6.97047e-01    2.35298e-01    1.29148e-01    1.29148e-01    2.35298e-01
    3.80000e+01    1.00000e+00   -4.23938e-04    1.97898e-04    5.04917e+00    2.24467e+00    5.60078e-01    5.61359e-01    5.61437e-01    5.60805e-01    1.40197e-01    1.40437e-01    1.40365e-01    1.39823e-01    2.78819e+00    9.41191e-01    6.97047e-01    5.16593e-01    6.97047e-01    2.35298e-01    1.29148e-01    1.29148e-01    2.35298e-01
    3.90000e+01    1.00000e+00    0.00000e+00    0.00000e+00    5.04951e+00    2.24464e+00    5.60771e-01    5.61409e-01    5.60771e-01    5.60924e-01    1.40273e-01    1.40228e-01    1.40273e-01    1.40228e-01    2.78819e+00    9.41191e-01    6.97047e-01    5.16593e-01    6.97047e-01    2.35298e-01    1.29148e-01    1.29148e-01    2.35298e-01
    0.00000e+00    2.00000e+00    0.00000e+00    0.00000e+00    4.96685e+00    2.20635e+00    5.52279e-01    5.51423e-01    5.52279e-01    5.51834e-01    1.38507e-01    1.37835e-01    1.38507e-01    1.37835e-01    2.78819e+00    9.41191e-01    6.97047e-01    5.16593e-01    6.97047e-01    2.35298e-01    1.29148e-01    1.29148e-01    2.35298e-01
    1.00000e+00    2.00000e+00   -6.80082e-04   -8.02282e-04    4.96822e+00    2.20693e+00    5.51178e-01    5.50697e-01    5.53382e-01    5.53410e-01    1.37609e-01    1.38065e-01    1.38833e-01    1.38114e-01    2.78819e+00    9.41191e-01    6.97047e-01    5.16593e-01    6.97047e-01    2.35298e-01    1.29148e-01    1.29148e-01    2.35298e-01
    2.00000e+00    2.00000e+00   -1.28803e-03   -8.76178e-04    4.97147e+00    2.20831e+00    5.50502e-01    5.50904e-01    5.54829e-01    5.53864e-01    1.37445e-01    1.38387e-01    1.39181e-01    1.38047e-01    2.78819e+00    9.41191e-01    6.97047e-01    5.16593e-01    6.97047e-01    2.35298e-01    1.29148e-01    1.29148e-01    2.35298e-01
    3.00000e+00    2.00000e+00   -1.97268e-03   -9.64225e-04    4.97581e+00    2.21020e+00    5.49983e-01    5.51184e-01    5.56473e-01    5.54451e-01    1.37249e-01    1.38748e-01    1.39677e-01    1.37851e-01    2.78819e+00    9.41191e-01    6.97047e-01    5.16593e-01    6.97047e-01    2.35298e-01    1.29148e-01    1.29148e-01    2.35298e-01
    4.00000e+00    2.00000e+00   -2.67484e-03   -1.14982e-03    4.98109e+00    2.21253e+00    5.49342e-01    5.51456e-01    5.58234e-01    5.55342e-01    1.37040e-01    1.39135e-01    1.40177e-01    1.37839e-01    2.78819e+00    9.41191e-01    6.97047e-01    5.16593e-01    6.97047e-01    2.35298e-01    1.29148e-01    1.29148e-01    2.35298e-01
    5.00000e+00    2.00000e+00   -3.33941e-03   -1.25432e-03    4.98702e+00    2.21520e+00    5.48870e-01    5.51956e-01    5.59969e-01    5.56221e-01    1.36846e-01    1.39562e-01    1.40618e-01    1.37779e-01    2.78819e+00    9.41191e-01    6.97047e-01    5.16593e-01    6.97047e-01    2.35298e-01    1.29148e-01    1.29148e-01    2.35298e-01