TITLE="LBM output"
VARIABLES = "X", "Y", "U","V","density","f0","f1","f2","f3","f4","f5","f6","f7","f8","feq0","feq1","feq2","feq3","feq4","feq5","feq6","feq7","feq8",
ZONE T = "fluid", I=40, J=40, F=POINT
SOLUTIONTIME=135
    0.00000e+00    0.00000e+00    0.00000e+00    0.00000e+00    5.05236e+00    2.24551e+00    5.61372e-01    5.61370e-01    5.61372e-01    5.61370e-01    1.40338e-01    1.40344e-01    1.40338e-01    1.40344e-01    2.79058e+00    9.41999e-01    6.97646e-01    5.17037e-01    6.97646e-01    2.35500e-01    1.29259e-01    1.29259e-01    2.35500e-01
    1.00000e+00    0.00000e+00    0.00000e+00    0.00000e+00    5.05221e+00    2.24545e+00    5.61381e-01    5.61346e-01    5.61351e-01    5.61346e-01    1.40322e-01    1.40342e-01    1.40322e-01    1.40342e-01    2.79058e+00    9.41999e-01    6.97646e-01    5.17037e-01    6.97646e-01    2.35500e-01    1.29259e-01    1.29259e-01    2.35500e-01
    2.00000e+00    0.00000e+00    0.00000e+00    0.00000e+00    5.05201e+00    2.24538e+00    5.61354e-01    5.61323e-01    5.61333e-01    5.61323e-01    1.40319e-01    1.40330e-01    1.40319e-01    1.40330e-01    2.79058e+00    9.41999e-01    6.97646e-01    5.17037e-01    6.97646e-01    2.35500e-01    1.29259e-01    1.29259e-01    2.35500e-01
    3.00000e+00    0.00000e+00    0.00000e+00    0.00000e+00    5.05176e+00    2.24529e+00    5.61338e-01    5.61285e-01    5.61301e-01    5.61285e-01    1.40297e-01    1.40336e-01    1.40297e-01    1.40336e-01    2.79058e+00    9.41999e-01    6.97646e-01    5.17037e-01    6.97646e-01    2.35500e-01    1.29259e-01    1.29259e-01    2.35500e-01
    4.00000e+00    0.00000e+00    0.00000e+00    0.00000e+00    5.05137e+00    2.24514e+00    5.61314e-01    5.61228e-01    5.61258e-01    5.61228e-01    1.40278e-01    1.40322e-01    1.40278e-01    1.40322e-01    2.79058e+00    9.41999e-01    6.97646e-01    5.17037e-01    6.97646e-01    2.35500e-01    1.29259e-01    1.29259e-01    2.35500e-01
    5.00000e+00    0.00000e+00    0.00000e+00    0.00000e+00    5.05082e+00    2.24493e+00    5.61267e-01    5.61156e-01    5.61192e-01    5.61156e-01    1.40241e-01    1.40318e-01    1.40241e-01    1.40318e-01    2.79058e+00    9.41999e-01    6.97646e-01    5.17037e-01    6.97646e-01    2.35500e-01    1.29259e-01    1.29259e-01    2.35500e-01
    6.00000e+00    0.00000e+00    0.00000e+00    0.00000e+00    5.05001e+00    2.24461e+00    5.61211e-01    5.61046e-01    5.61094e-01    5.61046e-01    1.40193e-01    1.40306e-01    1.40193e-01    1.40306e-01    2.79058e+00    9.41999e-01    6.97646e-01    5.17037e-01    6.97646e-01    2.35500e-01    1.29259e-01    1.29259e-01    2.35500e-01
    7.00000e+00    0.00000e+00    0.00000e+00    0.00000e+00    5.04884e+00    2.24415e+00    5.61118e-01    5.60895e-01    5.60950e-01    5.60895e-01    1.40119e-01    1.40296e-01    1.40119e-01    1.40296e-01    2.79058e+00    9.41999e-01    6.97646e-01    5.17037e-01    6.97646e-01    2.35500e-01    1.29259e-01    1.29259e-01    2.35500e-01
    8.00000e+00    0.00000e+00    0.00000e+00    0.00000e+00    5.04727e+00    2.24353e+00    5.60984e-01    5.60695e-01    5.60772e-01    5.60695e-01    1.40015e-01    1.40283e-01    1.40015e-01    1.40283e-01    2.79058e+00    9.41999e-01    6.97646e-01    5.17037e-01    6.97646e-01    2.35500e-01    1.29259e-01    1.29259e-01    2.35500e-01
    9.00000e+00    0.00000e+00    0.00000e+00    0.00000e+00    5.04528e+00    2.24274e+00    5.60820e-01    5.60434e-01    5.60548e-01    5.60434e-01    1.39875e-01    1.40276e-01    1.39875e-01    1.40276e-01    2.79058e+00    9.41999e-01    6.97646e-01    5.17037e-01    6.97646e-01    2.35500e-01    1.29259e-01    1.29259e-01    2.35500e-01
    1.00000e+01    0.00000e+00    0.00000e+00    0.00000e+00    5.04290e+00    2.24178e+00    5.60599e-01    5.60135e-01    5.60288e-01    5.60135e-01    1.39708e-01    1.40274e-01    1.39708e-01    1.40274e-01    2.79058e+00    9.41999e-01    6.97646e-01    5.17037e-01    6.97646e-01    2.35500e-01    1.29259e-01    1.29259e-01    2.35500e-01
    1.10000e+01    0.00000e+00    0.00000e+00    0.00000e+00    5.04016e+00    2.24063e+00    5.60340e-01    5.59801e-01    5.59979e-01    5.59801e-01    1.39518e-01    1.40286e-01    1.39518e-01    1.40286e-01    2.79058e+00    9.41999e-01    6.97646e-01    5.17037e-01    6.97646e-01    2.35500e-01    1.29259e-01    1.29259e-01    2.35500e-01
    1.20000e+01    0.00000e+00    0.00000e+00    0.00000e+00    5.03707e+00    2.23929e+00    5.60030e-01    5.59439e-01    5.59620e-01    5.59439e-01    1.39319e-01    1.40306e-01    1.39319e-01    1.40306e-01    2.79058e+00    9.41999e-01    6.97646e-01    5.17037e-01    6.97646e-01    2.35500e-01    1.29259e-01    1.29259e-01    2.35500e-01
    1.30000e+01    0.00000e+00    0.00000e+00    0.00000e+00    5.03372e+00    2.23778e+00    5.59663e-01    5.59069e-01    5.59231e-01    5.59069e-01    1.39125e-01    1.40329e-01    1.39125e-01    1.40329e-01    2.79058e+00    9.41999e-01    6.97646e-01    5.17037e-01    6.97646e-01    2.35500e-01    1.29259e-01    1.29259e-01    2.35500e-01
    1.40000e+01    0.00000e+00    0.00000e+00    0.00000e+00    5.03037e+00    2.23624e+00    5.59271e-01    5.58708e-01    5.58852e-01    5.58708e-01    1.38951e-01    1.40348e-01    1.38951e-01    1.40348e-01    2.79058e+00    9.41999e-01    6.97646e-01    5.17037e-01    6.97646e-01    2.35500e-01    1.29259e-01    1.29259e-01    2.35500e-01
    1.50000e+01    0.00000e+00    0.00000e+00    0.00000e+00    5.02740e+00    2.23484e+00    5.58884e-01    5.58398e-01    5.58541e-01    5.58398e-01    1.38804e-01    1.40363e-01    1.38804e-01    1.40363e-01    2.79058e+00    9.41999e-01    6.97646e-01    5.17037e-01    6.97646e-01    2.35500e-01    1.29259e-01    1.29259e-01    2.35500e-01
    1.60000e+01    0.00000e+00    0.00000e+00    0.00000e+00    5.02520e+00    2.23381e+00    5.58565e-01    5.58176e-01    5.58346e-01    5.58176e-01    1.38684e-01    1.40379e-01    1.38684e-01    1.40379e-01    2.79058e+00    9.41999e-01    6.97646e-01    5.17037e-01    6.97646e-01    2.35500e-01    1.29259e-01    1.29259e-01    2.35500e-01
    1.70000e+01    0.00000e+00    0.00000e+00    0.00000e+00    5.02404e+00    2.23325e+00    5.58354e-01    5.58073e-01    5.58280e-01    5.58073e-01    1.38591e-01    1.40410e-01    1.38591e-01    1.40410e-01    2.79058e+00    9.41999e-01    6.97646e-01    5.17037e-01    6.97646e-01    2.35500e-01    1.29259e-01    1.29259e-01    2.35500e-01
    1.80000e+01    0.00000e+00    0.00000e+00    0.00000e+00    5.02383e+00    2.23313e+00    5.58271e-01    5.58082e-01    5.58304e-01    5.58082e-01    1.38517e-01    1.40463e-01    1.38517e-01    1.40463e-01    2.79058e+00    9.41999e-01    6.97646e-01    5.17037e-01    6.97646e-01    2.35500e-01    1.29259e-01    1.29259e-01    2.35500e-01
    1.90000e+01    0.00000e+00    0.00000e+00    0.00000e+00    5.02416e+00    2.23322e+00    5.58277e-01    5.58166e-01    5.58339e-01    5.58166e-01    1.38456e-01    1.40540e-01    1.38456e-01    1.40540e-01    2.79058e+00    9.41999e-01    6.97646e-01    5.17037e-01    6.97646e-01    2.35500e-01    1.29259e-01    1.29259e-01    2.35500e-01
    2.00000e+01    0.00000e+00    0.00000e+00    0.00000e+00    5.02433e+00    2.23317e+00    5.58301e-01    5.58253e-01    5.58290e-01    5.58253e-01    1.38406e-01    1.40622e-01    1.38406e-01    1.40622e-01    2.79058e+00    9.41999e-01    6.97646e-01    5.17037e-01    6.97646e-01    2.35500e-01    1.29259e-01    1.29259e-01    2.35500e-01
    2.10000e+01    0.00000e+00    0.00000e+00    0.00000e+00    5.02360e+00    2.23265e+00    5.58249e-01    5.58263e-01    5.58073e-01    5.58263e-01    1.38372e-01    1.40680e-01    1.38372e-01    1.40680e-01    2.79058e+00    9.41999e-01    6.97646e-01    5.17037e-01    6.97646e-01    2.35500e-01    1.29259e-01    1.29259e-01    2.35500e-01
    2.20000e+01    0.00000e+00    0.00000e+00    0.00000e+00    5.02144e+00    2.23143e+00    5.58045e-01    5.58124e-01    5.57657e-01    5.58124e-01    1.38356e-01    1.40676e-01    1.38356e-01    1.40676e-01    2.79058e+00    9.41999e-01    6.97646e-01    5.17037e-01    6.97646e-01    2.35500e-01    1.29259e-01    1.29259e-01    2.35500e-01
    2.30000e+01    0.00000e+00    0.00000e+00    0.00000e+00    5.01765e+00    2.22946e+00    5.57654e-01    5.57798e-01    5.57058e-01    5.57798e-01    1.38357e-01    1.40581e-01    1.38357e-01    1.40581e-01    2.79058e+00    9.41999e-01    6.97646e-01    5.17037e-01    6.97646e-01    2.35500e-01    1.29259e-01    1.29259e-01    2.35500e-01
    2.40000e+01    0.00000e+00    0.00000e+00    0.00000e+00    5.01243e+00    2.22691e+00    5.57091e-01    5.57286e-01    5.56345e-01    5.57286e-01    1.38372e-01    1.40380e-01    1.38372e-01    1.40380e-01    2.79058e+00    9.41999e-01    6.97646e-01    5.17037e-01    6.97646e-01    2.35500e-01    1.29259e-01    1.29259e-01    2.35500e-01
    2.50000e+01    0.00000e+00    0.00000e+00    0.00000e+00    5.00626e+00    2.22405e+00    5.56413e-01    5.56627e-01    5.55591e-01    5.56627e-01    1.38392e-01    1.40083e-01    1.38392e-01    1.40083e-01    2.79058e+00    9.41999e-01    6.97646e-01    5.17037e-01    6.97646e-01    2.35500e-01    1.29259e-01    1.29259e-01    2.35500e-01
    2.60000e+01    0.00000e+00    0.00000e+00    0.00000e+00    4.99977e+00    2.22117e+00    5.55691e-01    5.55889e-01    5.54883e-01    5.55889e-01    1.38404e-01    1.39723e-01    1.38404e-01    1.39723e-01    2.79058e+00    9.41999e-01    6.97646e-01    5.17037e-01    6.97646e-01    2.35500e-01    1.29259e-01    1.29259e-01    2.35500e-01
    2.70000e+01    0.00000e+00    0.00000e+00    0.00000e+00    4.99358e+00    2.21852e+00    5.54995e-01    5.55149e-01    5.54262e-01    5.55149e-01    1.38406e-01    1.39346e-01    1.38406e-01    1.39346e-01    2.79058e+00    9.41999e-01    6.97646e-01    5.17037e-01    6.97646e-01    2.35500e-01    1.29259e-01    1.29259e-01    2.35500e-01
    2.80000e+01    0.00000e+00    0.00000e+00    0.00000e+00    4.98815e+00    2.21627e+00    5.54375e-01    5.54475e-01    5.53771e-01    5.54475e-01    1.38394e-01    1.38995e-01    1.38394e-01    1.38995e-01    2.79058e+00    9.41999e-01    6.97646e-01    5.17037e-01    6.97646e-01    2.35500e-01    1.29259e-01    1.29259e-01    2.35500e-01
    2.90000e+01    0.00000e+00    0.00000e+00    0.00000e+00    4.98376e+00    2.21451e+00    5.53865e-01    5.53920e-01    5.53399e-01    5.53920e-01    1.38376e-01    1.38701e-01    1.38376e-01    1.38701e-01    2.79058e+00    9.41999e-01    6.97646e-01    5.17037e-01    6.97646e-01    2.35500e-01    1.29259e-01    1.29259e-01    2.35500e-01
    3.00000e+01    0.00000e+00    0.00000e+00    0.00000e+00    4.98051e+00    2.21322e+00    5.53474e-01    5.53497e-01    5.53154e-01    5.53497e-01    1.38353e-01    1.38481e-01    1.38353e-01    1.38481e-01    2.79058e+00    9.41999e-01    6.97646e-01    5.17037e-01    6.97646e-01    2.35500e-01    1.29259e-01    1.29259e-01    2.35500e-01
    3.10000e+01    0.00000e+00    0.00000e+00    0.00000e+00    4.97831e+00    2.21237e+00    5.53202e-01    5.53208e-01    5.52992e-01    5.53208e-01    1.38335e-01    1.38328e-01    1.38335e-01    1.38328e-01    2.79058e+00    9.41999e-01    6.97646e-01    5.17037e-01    6.97646e-01    2.35500e-01    1.29259e-01    1.29259e-01    2.35500e-01
    3.20000e+01    0.00000e+00    0.00000e+00    0.00000e+00    4.97692e+00    2.21185e+00    5.53026e-01    5.53020e-01    5.52910e-01    5.53020e-01    1.38313e-01    1.38234e-01    1.38313e-01    1.38234e-01    2.79058e+00    9.41999e-01    6.97646e-01    5.17037e-01    6.97646e-01    2.35500e-01    1.29259e-01    1.29259e-01    2.35500e-01
    3.30000e+01    0.00000e+00    0.00000e+00    0.00000e+00    4.97607e+00    2.21154e+00    5.52926e-01    5.52910e-01    5.52844e-01    5.52910e-01    1.38289e-01    1.38181e-01    1.38289e-01    1.38181e-01    2.79058e+00    9.41999e-01    6.97646e-01    5.17037e-01    6.97646e-01    2.35500e-01    1.29259e-01    1.29259e-01    2.35500e-01
    3.40000e+01    0.00000e+00    0.00000e+00    0.00000e+00    4.97558e+00    2.21137e+00    5.52864e-01    5.52833e-01    5.52833e-01    5.52833e-01    1.38261e-01    1.38161e-01    1.38261e-01    1.38161e-01    2.79058e+00    9.41999e-01    6.97646e-01    5.17037e-01    6.97646e-01    2.35500e-01    1.29259e-01    1.29259e-01    2.35500e-01
    3.50000e+01    0.00000e+00    0.00000e+00    0.00000e+00    4.97520e+00    2.21123e+00    5.52831e-01    5.52788e-01    5.52770e-01    5.52788e-01    1.38239e-01    1.38158e-01    1.38239e-01    1.38158e-01    2.79058e+00    9.41999e-01    6.97646e-01    5.17037e-01    6.97646e-01    2.35500e-01    1.29259e-01    1.29259e-01    2.35500e-01
    3.60000e+01    0.00000e+00    0.00000e+00    0.00000e+00    4.97494e+00    2.21113e+00    5.52790e-01    5.52732e-01    5.52792e-01    5.52732e-01    1.38223e-01    1.38162e-01    1.38223e-01    1.38162e-01    2.79058e+00    9.41999e-01    6.97646e-01    5.17037e-01    6.97646e-01    2.35500e-01    1.29259e-01    1.29259e-01    2.35500e-01
    3.70000e+01    0.00000e+00    0.00000e+00    0.00000e+00    4.97475e+00    2.21105e+00    5.52777e-01    5.52732e-01    5.52725e-01    5.52732e-01    1.38209e-01    1.38159e-01    1.38209e-01    1.38159e-01    2.79058e+00    9.41999e-01    6.97646e-01    5.17037e-01    6.97646e-01    2.35500e-01    1.29259e-01    1.29259e-01    2.35500e-01
    3.80000e+01    0.00000e+00    0.00000e+00    0.00000e+00    4.97467e+00    2.21102e+00    5.52752e-01    5.52695e-01    5.52790e-01    5.52695e-01    1.38187e-01    1.38173e-01    1.38187e-01    1.38173e-01    2.79058e+00    9.41999e-01    6.97646e-01    5.17037e-01    6.97646e-01    2.35500e-01    1.29259e-01    1.29259e-01    2.35500e-01
    3.90000e+01    0.00000e+00    0.00000e+00    0.00000e+00    4.97484e+00    2.21110e+00    5.52759e-01    5.52761e-01    5.52759e-01    5.52761e-01    1.38194e-01    1.38155e-01    1.38194e-01    1.38155e-01    2.79058e+00    9.41999e-01    6.97646e-01    5.17037e-01    6.97646e-01    2.35500e-01    1.29259e-01    1.29259e-01    2.35500e-01
    0.00000e+00    1.00000e+00    0.00000e+00    0.00000e+00    5.05222e+00    2.24546e+00    5.61344e-01    5.61382e-01    5.61344e-01    5.61356e-01    1.40328e-01    1.40340e-01    1.40328e-01    1.40340e-01    2.79058e+00    9.41999e-01    6.97646e-01    5.17037e-01    6.97646e-01    2.35500e-01    1.29259e-01    1.29259e-01    2.35500e-01
    1.00000e+00    1.00000e+00    5.67257e-06    2.79647e-05    5.05214e+00    2.24543e+00    5.61374e-01    5.61370e-01    5.61363e-01    5.61275e-01    1.40346e-01    1.40342e-01    1.40314e-01    1.40327e-01    2.79058e+00    9.41999e-01    6.97646e-01    5.17037e-01    6.97646e-01    2.35500e-01    1.29259e-01    1.29259e-01    2.35500e-01
    2.00000e+00    1.00000e+00   -1.37966e-05    3.92646e-05    5.05196e+00    2.24536e+00    5.61346e-01    5.61355e-01    5.61385e-01    5.61223e-01    1.40352e-01    1.40328e-01    1.40334e-01    1.40279e-01    2.79058e+00    9.41999e-01    6.97646e-01    5.17037e-01    6.97646e-01    2.35500e-01    1.29259e-01    1.29259e-01    2.35500e-01
    3.00000e+00    1.00000e+00   -2.81947e-05    4.63870e-05    5.05168e+00    2.24526e+00    5.61272e-01    5.61343e-01    5.61363e-01    5.61186e-01    1.40344e-01    1.40325e-01    1.40332e-01    1.40260e-01    2.79058e+00    9.41999e-01    6.97646e-01    5.17037e-01    6.97646e-01    2.35500e-01    1.29259e-01    1.29259e-01    2.35500e-01
    4.00000e+00    1.00000e+00   -3.04510e-05    6.63746e-05    5.05126e+00    2.24510e+00    5.61229e-01    5.61319e-01    5.61321e-01    5.61097e-01    1.40349e-01    1.40305e-01    1.40323e-01    1.40218e-01    2.79058e+00    9.41999e-01    6.97646e-01    5.17037e-01    6.97646e-01    2.35500e-01    1.29259e-01    1.29259e-01    2.35500e-01
    5.00000e+00    1.00000e+00   -2.38354e-05    8.38361e-05    5.05066e+00    2.24487e+00    5.61169e-01    5.61278e-01    5.61238e-01    5.60997e-01    1.40343e-01    1.40283e-01    1.40298e-01    1.40186e-01    2.79058e+00    9.41999e-01    6.97646e-01    5.17037e-01    6.97646e-01    2.35500e-01    1.29259e-01    1.29259e-01    2.35500e-01
    6.00000e+00    1.00000e+00    2.81652e-06    1.07088e-04    5.04979e+00    2.24453e+00    5.61109e-01    5.61219e-01    5.61081e-01    5.60862e-01    1.40343e-01    1.40244e-01    1.40258e-01    1.40146e-01    2.79058e+00    9.41999e-01    6.97646e-01    5.17037e-01    6.97646e-01    2.35500e-01    1.29259e-01    1.29259e-01    2.35500e-01
    7.00000e+00    1.00000e+00    5.99615e-05    1.31706e-04    5.04858e+00    2.24405e+00    5.61054e-01    5.61126e-01    5.60831e-01    5.60692e-01    1.40339e-01    1.40191e-01    1.40184e-01    1.40115e-01    2.79058e+00    9.41999e-01    6.97646e-01    5.17037e-01    6.97646e-01    2.35500e-01    1.29259e-01    1.29259e-01    2.35500e-01
    8.00000e+00    1.00000e+00    1.53818e-04    1.65882e-04    5.04698e+00    2.24341e+00    5.61021e-01    5.61004e-01    5.60474e-01    5.60461e-01    1.40339e-01    1.40114e-01    1.40077e-01    1.40082e-01    2.79058e+00    9.41999e-01    6.97646e-01    5.17037e-01    6.97646e-01    2.35500e-01    1.29259e-01    1.29259e-01    2.35500e-01
    9.00000e+00    1.00000e+00    2.93212e-04    2.06822e-04    5.04499e+00    2.24261e+00    5.61010e-01    5.60855e-01    5.59985e-01    5.60182e-01    1.40345e-01    1.40014e-01    1.39932e-01    1.40056e-01    2.79058e+00    9.41999e-01    6.97646e-01    5.17037e-01    6.97646e-01    2.35500e-01    1.29259e-01    1.29259e-01    2.35500e-01
    1.00000e+01    1.00000e+00    4.83659e-04    2.46922e-04    5.04261e+00    2.24164e+00    5.61047e-01    5.60659e-01    5.59368e-01    5.59859e-01    1.40362e-01    1.39882e-01    1.39760e-01    1.40039e-01    2.79058e+00    9.41999e-01    6.97646e-01    5.17037e-01    6.97646e-01    2.35500e-01    1.29259e-01    1.29259e-01    2.35500e-01
    1.10000e+01    1.00000e+00    7.20040e-04    2.76136e-04    5.03989e+00    2.24049e+00    5.61126e-01    5.60413e-01    5.58636e-01    5.59518e-01    1.40380e-01    1.39721e-01    1.39563e-01    1.40042e-01    2.79058e+00    9.41999e-01    6.97646e-01    5.17037e-01    6.97646e-01    2.35500e-01    1.29259e-01    1.29259e-01    2.35500e-01
    1.20000e+01    1.00000e+00    9.86816e-04    2.89908e-04    5.03686e+00    2.23917e+00    5.61237e-01    5.60104e-01    5.57831e-01    5.59165e-01    1.40399e-01    1.39538e-01    1.39356e-01    1.40060e-01    2.79058e+00    9.41999e-01    6.97646e-01    5.17037e-01    6.97646e-01    2.35500e-01    1.29259e-01    1.29259e-01    2.35500e-01
    1.30000e+01    1.00000e+00    1.25821e-03    2.84512e-04    5.03366e+00    2.23773e+00    5.61352e-01    5.59737e-01    5.57019e-01    5.58817e-01    1.40407e-01    1.39351e-01    1.39151e-01    1.40095e-01    2.79058e+00    9.41999e-01    6.97646e-01    5.17037e-01    6.97646e-01    2.35500e-01    1.29259e-01    1.29259e-01    2.35500e-01
    1.40000e+01    1.00000e+00    1.50886e-03    2.65805e-04    5.03053e+00    2.23629e+00    5.61450e-01    5.59352e-01    5.56263e-01    5.58495e-01    1.40401e-01    1.39178e-01    1.38959e-01    1.40139e-01    2.79058e+00    9.41999e-01    6.97646e-01    5.17037e-01    6.97646e-01    2.35500e-01    1.29259e-01    1.29259e-01    2.35500e-01
    1.50000e+01    1.00000e+00    1.72362e-03    2.39457e-04    5.02777e+00    2.23500e+00    5.61531e-01    5.58995e-01    5.55617e-01    5.58227e-01    1.40385e-01    1.39032e-01    1.38791e-01    1.40190e-01    2.79058e+00    9.41999e-01    6.97646e-01    5.17037e-01    6.97646e-01    2.35500e-01    1.29259e-01    1.29259e-01    2.35500e-01
    1.60000e+01    1.00000e+00    1.90223e-03    2.11940e-04    5.02571e+00    2.23403e+00    5.61620e-01    5.58719e-01    5.55103e-01    5.58043e-01    1.40374e-01    1.38920e-01    1.38658e-01    1.40247e-01    2.79058e+00    9.41999e-01    6.97646e-01    5.17037e-01    6.97646e-01    2.35500e-01    1.29259e-01    1.29259e-01    2.35500e-01
    1.70000e+01    1.00000e+00    2.05672e-03    1.83945e-04    5.02451e+00    2.23345e+00    5.61753e-01    5.58546e-01    5.54713e-01    5.57960e-01    1.40381e-01    1.38835e-01    1.38565e-01    1.40314e-01    2.79058e+00    9.41999e-01    6.97646e-01    5.17037e-01    6.97646e-01    2.35500e-01    1.29259e-01    1.29259e-01    2.35500e-01
    1.80000e+01    1.00000e+00    2.20151e-03    1.48838e-04    5.02408e+00    2.23321e+00    5.61944e-01    5.58460e-01    5.54412e-01    5.57983e-01    1.40414e-01    1.38761e-01    1.38515e-01    1.40390e-01    2.79058e+00    9.41999e-01    6.97646e-01    5.17037e-01    6.97646e-01    2.35500e-01    1.29259e-01    1.29259e-01    2.35500e-01
    1.90000e+01    1.00000e+00    2.34079e-03    9.54053e-05    5.02405e+00    2.23311e+00    5.62172e-01    5.58397e-01    5.54160e-01    5.58086e-01    1.40464e-01    1.38681e-01    1.38506e-01    1.40471e-01    2.79058e+00    9.41999e-01    6.97646e-01    5.17037e-01    6.97646e-01    2.35500e-01    1.29259e-01    1.29259e-01    2.35500e-01
    2.00000e+01    1.00000e+00    2.45925e-03    1.62042e-05    5.02384e+00    2.23290e+00    5.62358e-01    5.58272e-01    5.53935e-01    5.58208e-01    1.40509e-01    1.38586e-01    1.38534e-01    1.40543e-01    2.79058e+00    9.41999e-01    6.97646e-01    5.17037e-01    6.97646e-01    2.35500e-01    1.29259e-01    1.29259e-01    2.35500e-01
    2.10000e+01    1.00000e+00    2.52247e-03   -8.98648e-05    5.02285e+00    2.23227e+00    5.62387e-01    5.58007e-01    5.53740e-01    5.58280e-01    1.40514e-01    1.38480e-01    1.38591e-01    1.40581e-01    2.79058e+00    9.41999e-01    6.97646e-01    5.17037e-01    6.97646e-01    2.35500e-01    1.29259e-01    1.29259e-01    2.35500e-01
    2.20000e+01    1.00000e+00    2.48801e-03   -2.11741e-04    5.02062e+00    2.23104e+00    5.62136e-01    5.57566e-01    5.53603e-01    5.58230e-01    1.40445e-01    1.38375e-01    1.38665e-01    1.40553e-01    2.79058e+00    9.41999e-01    6.97646e-01    5.17037e-01    6.97646e-01    2.35500e-01    1.29259e-01    1.29259e-01    2.35500e-01
    2.30000e+01    1.00000e+00    2.32373e-03   -3.28218e-04    5.01697e+00    2.22918e+00    5.61520e-01    5.56963e-01    5.53548e-01    5.58003e-01    1.40284e-01    1.38290e-01    1.38745e-01    1.40436e-01    2.79058e+00    9.41999e-01    6.97646e-01    5.17037e-01    6.97646e-01    2.35500e-01    1.29259e-01    1.29259e-01    2.35500e-01
    2.40000e+01    1.00000e+00    2.02431e-03   -4.14891e-04    5.01205e+00    2.22680e+00    5.60527e-01    5.56259e-01    5.53582e-01    5.57580e-01    1.40035e-01    1.38238e-01    1.38814e-01    1.40218e-01    2.79058e+00    9.41999e-01    6.97646e-01    5.17037e-01    6.97646e-01    2.35500e-01    1.29259e-01    1.29259e-01    2.35500e-01
    2.50000e+01    1.00000e+00    1.61714e-03   -4.55633e-04    5.00624e+00    2.22410e+00    5.59230e-01    5.55532e-01    5.53681e-01    5.56986e-01    1.39722e-01    1.38220e-01    1.38862e-01    1.39907e-01    2.79058e+00    9.41999e-01    6.97646e-01    5.17037e-01    6.97646e-01    2.35500e-01    1.29259e-01    1.29259e-01    2.35500e-01
    2.60000e+01    1.00000e+00    1.15539e-03   -4.45538e-04    5.00008e+00    2.22135e+00    5.57769e-01    5.54855e-01    5.53800e-01    5.56278e-01    1.39383e-01    1.38227e-01    1.38881e-01    1.39533e-01    2.79058e+00    9.41999e-01    6.97646e-01    5.17037e-01    6.97646e-01    2.35500e-01    1.29259e-01    1.29259e-01    2.35500e-01
    2.70000e+01    1.00000e+00    7.00379e-04   -3.94126e-04    4.99411e+00    2.21878e+00    5.56312e-01    5.54272e-01    5.53895e-01    5.55531e-01    1.39058e-01    1.38246e-01    1.38872e-01    1.39141e-01    2.79058e+00    9.41999e-01    6.97646e-01    5.17037e-01    6.97646e-01    2.35500e-01    1.29259e-01    1.29259e-01    2.35500e-01
    2.80000e+01    1.00000e+00    3.03375e-04   -3.18908e-04    4.98879e+00    2.21656e+00    5.55004e-01    5.53807e-01    5.53939e-01    5.54827e-01    1.38775e-01    1.38264e-01    1.38837e-01    1.38774e-01    2.79058e+00    9.41999e-01    6.97646e-01    5.17037e-01    6.97646e-01    2.35500e-01    1.29259e-01    1.29259e-01    2.35500e-01
    2.90000e+01    1.00000e+00   -5.42654e-06   -2.40677e-04    4.98441e+00    2.21478e+00    5.53944e-01    5.53455e-01    5.53925e-01    5.54226e-01    1.38552e-01    1.38275e-01    1.38789e-01    1.38465e-01    2.79058e+00    9.41999e-01    6.97646e-01    5.17037e-01    6.97646e-01    2.35500e-01    1.29259e-01    1.29259e-01    2.35500e-01
    3.00000e+01    1.00000e+00   -2.18213e-04   -1.70135e-04    4.98108e+00    2.21346e+00    5.53165e-01    5.53207e-01    5.53866e-01    5.53756e-01    1.38388e-01    1.38279e-01    1.38730e-01    1.38236e-01    2.79058e+00    9.41999e-01    6.97646e-01    5.17037e-01    6.97646e-01    2.35500e-01    1.29259e-01    1.29259e-01    2.35500e-01
    3.10000e+01    1.00000e+00   -3.42096e-04   -1.16358e-04    4.97874e+00    2.21255e+00    5.52651e-01    5.53043e-01    5.53771e-01    5.53421e-01    1.38278e-01    1.38277e-01    1.38670e-01    1.38085e-01    2.79058e+00    9.41999e-01    6.97646e-01    5.17037e-01    6.97646e-01    2.35500e-01    1.29259e-01    1.29259e-01    2.35500e-01
    3.20000e+01    1.00000e+00   -3.92549e-04   -7.65809e-05    4.97721e+00    2.21196e+00    5.52360e-01    5.52945e-01    5.53654e-01    5.53198e-01    1.38209e-01    1.38271e-01    1.38603e-01    1.38006e-01    2.79058e+00    9.41999e-01    6.97646e-01    5.17037e-01    6.97646e-01    2.35500e-01    1.29259e-01    1.29259e-01    2.35500e-01
    3.30000e+01    1.00000e+00   -3.84307e-04   -5.27453e-05    4.97624e+00    2.21161e+00    5.52234e-01    5.52883e-01    5.53502e-01    5.53062e-01    1.38176e-01    1.38260e-01    1.38540e-01    1.37979e-01    2.79058e+00    9.41999e-01    6.97646e-01    5.17037e-01    6.97646e-01    2.35500e-01    1.29259e-01    1.29259e-01    2.35500e-01
    3.40000e+01    1.00000e+00   -3.29775e-04   -3.36274e-05    4.97563e+00    2.21139e+00    5.52233e-01    5.52858e-01    5.53323e-01    5.52975e-01    1.38163e-01    1.38242e-01    1.38464e-01    1.37992e-01    2.79058e+00    9.41999e-01    6.97646e-01    5.17037e-01    6.97646e-01    2.35500e-01    1.29259e-01    1.29259e-01    2.35500e-01
    3.50000e+01    1.00000e+00   -2.54235e-04   -1.70673e-05    4.97523e+00    2.21124e+00    5.52317e-01    5.52826e-01    5.53156e-01    5.52891e-01    1.38167e-01    1.38226e-01    1.38390e-01    1.38023e-01    2.79058e+00    9.41999e-01    6.97646e-01    5.17037e-01    6.97646e-01    2.35500e-01    1.29259e-01    1.29259e-01    2.35500e-01
    3.60000e+01    1.00000e+00   -1.82401e-04    9.19776e-06    4.97496e+00    2.21113e+00    5.52420e-01    5.52826e-01    5.53025e-01    5.52805e-01    1.38170e-01    1.38219e-01    1.38308e-01    1.38056e-01    2.79058e+00    9.41999e-01    6.97646e-01    5.17037e-01    6.97646e-01    2.35500e-01    1.29259e-01    1.29259e-01    2.35500e-01
    3.70000e+01    1.00000e+00   -1.24230e-04    8.73844e-06    4.97480e+00    2.21107e+00    5.52514e-01    5.52790e-01    5.52925e-01    5.52772e-01    1.38172e-01    1.38203e-01    1.38264e-01    1.38087e-01    2.79058e+00    9.41999e-01    6.97646e-01    5.17037e-01    6.97646e-01    2.35500e-01    1.29259e-01    1.29259e-01    2.35500e-01
    3.80000e+01    1.00000e+00   -6.54989e-05    2.79826e-05    4.97470e+00    2.21103e+00    5.52588e-01    5.52806e-01    5.52805e-01    5.52726e-01    1.38176e-01    1.38226e-01    1.38201e-01    1.38142e-01    2.79058e+00    9.41999e-01    6.97646e-01    5.17037e-01    6.97646e-01    2.35500e-01    1.29259e-01    1.29259e-01    2.35500e-01
    3.90000e+01    1.00000e+00    0.00000e+00    0.00000e+00    4.97466e+00    2.21101e+00    5.52693e-01    5.52788e-01    5.52693e-01    5.52746e-01    1.38191e-01    1.38170e-01    1.38191e-01    1.38170e-01    2.79058e+00    9.41999e-01    6.97646e-01    5.17037e-01    6.97646e-01    2.35500e-01    1.29259e-01    1.29259e-01    2.35500e-01
    0.00000e+00    2.00000e+00    0.00000e+00    0.00000e+00    5.05209e+00    2.24541e+00    5.61340e-01    5.61355e-01    5.61340e-01    5.61345e-01    1.40297e-01    1.40353e-01    1.40297e-01    1.40353e-01    2.79058e+00    9.41999e-01    6.97646e-01    5.17037e-01    6.97646e-01    2.35500e-01    1.29259e-01    1.29259e-01    2.35500e-01
    1.00000e+00    2.00000e+00   -2.61760e-05    9.51669e-05    5.05201e+00    2.24538e+00    5.61357e-01    5.61417e-01    5.61461e-01    5.61087e-01    1.40348e-01    1.40382e-01    1.40287e-01    1.40292e-01    2.79058e+00    9.41999e-01    6.97646e-01    5.17037e-01    6.97646e-01    2.35500e-01    1.29259e-01    1.29259e-01    2.35500e-01
    2.00000e+00    2.00000e+00   -1.08395e-04    1.31747e-04    5.05181e+00    2.24530e+00    5.61238e-01    5.61430e-01    5.61596e-01    5.60976e-01    1.40352e-01    1.40390e-01    1.40341e-01    1.40190e-01    2.79058e+00    9.41999e-01    6.97646e-01    5.17037e-01    6.97646e-01    2.35500e-01    1.29259e-01    1.29259e-01    2.35500e-01
    3.00000e+00    2.00000e+00   -1.91816e-04    1.39318e-04    5.05149e+00    2.24518e+00    5.61037e-01    5.61409e-01    5.61690e-01    5.60929e-01    1.40330e-01    1.40407e-01    1.40376e-01    1.40137e-01    2.79058e+00    9.41999e-01    6.97646e-01    5.17037e-01    6.97646e-01    2.35500e-01    1.29259e-01    1.29259e-01    2.35500e-01
    4.00000e+00    2.00000e+00   -2.58928e-04    1.72070e-04    5.05103e+00    2.24500e+00    5.60873e-01    5.61411e-01    5.61746e-01    5.60823e-01    1.40315e-01    1.40411e-01    1.40392e-01    1.40052e-01    2.79058e+00    9.41999e-01    6.97646e-01    5.17037e-01    6.97646e-01    2.35500e-01    1.29259e-01    1.29259e-01    2.35500e-01
    5.00000e+00    2.00000e+00   -3.10503e-04    2.04546e-04    5.05034e+00    2.24474e+00    5.60701e-01    5.61386e-01    5.61751e-01    5.60686e-01    1.40301e-01    1.40405e-01    1.40393e-01    1.39980e-01    2.79058e+00    9.41999e-01    6.97646e-01    5.17037e-01    6.97646e-01    2.35500e-01    1.29259e-01    1.29259e-01    2.35500e-01