TITLE="LBM output"
VARIABLES = "X", "Y", "U","V","density","f0","f1","f2","f3","f4","f5","f6","f7","f8","feq0","feq1","feq2","feq3","feq4","feq5","feq6","feq7","feq8",
ZONE T = "fluid", I=40, J=40, F=POINT
SOLUTIONTIME=1209
    0.00000e+00    0.00000e+00    0.00000e+00    0.00000e+00    5.15701e+00    2.29188e+00    5.73005e-01    5.73003e-01    5.73005e-01    5.73003e-01    1.43315e-01    1.43243e-01    1.43315e-01    1.43243e-01    2.90208e+00    9.79636e-01    7.25520e-01    5.37695e-01    7.25520e-01    2.44909e-01    1.34424e-01    1.34424e-01    2.44909e-01
    1.00000e+00    0.00000e+00    0.00000e+00    0.00000e+00    5.15744e+00    2.29208e+00    5.72942e-01    5.73144e-01    5.73037e-01    5.73144e-01    1.43290e-01    1.43258e-01    1.43290e-01    1.43258e-01    2.90208e+00    9.79636e-01    7.25520e-01    5.37695e-01    7.25520e-01    2.44909e-01    1.34424e-01    1.34424e-01    2.44909e-01
    2.00000e+00    0.00000e+00    0.00000e+00    0.00000e+00    5.15736e+00    2.29204e+00    5.73084e-01    5.73084e-01    5.72978e-01    5.73084e-01    1.43299e-01    1.43243e-01    1.43299e-01    1.43243e-01    2.90208e+00    9.79636e-01    7.25520e-01    5.37695e-01    7.25520e-01    2.44909e-01    1.34424e-01    1.34424e-01    2.44909e-01
    3.00000e+00    0.00000e+00    0.00000e+00    0.00000e+00    5.15708e+00    2.29192e+00    5.72952e-01    5.73097e-01    5.72982e-01    5.73097e-01    1.43304e-01    1.43210e-01    1.43304e-01    1.43210e-01    2.90208e+00    9.79636e-01    7.25520e-01    5.37695e-01    7.25520e-01    2.44909e-01    1.34424e-01    1.34424e-01    2.44909e-01
    4.00000e+00    0.00000e+00    0.00000e+00    0.00000e+00    5.15689e+00    2.29184e+00    5.73004e-01    5.73036e-01    5.72934e-01    5.73036e-01    1.43322e-01    1.43198e-01    1.43322e-01    1.43198e-01    2.90208e+00    9.79636e-01    7.25520e-01    5.37695e-01    7.25520e-01    2.44909e-01    1.34424e-01    1.34424e-01    2.44909e-01
    5.00000e+00    0.00000e+00    0.00000e+00    0.00000e+00    5.15652e+00    2.29168e+00    5.72927e-01    5.73000e-01    5.72902e-01    5.73000e-01    1.43349e-01    1.43155e-01    1.43349e-01    1.43155e-01    2.90208e+00    9.79636e-01    7.25520e-01    5.37695e-01    7.25520e-01    2.44909e-01    1.34424e-01    1.34424e-01    2.44909e-01
    6.00000e+00    0.00000e+00    0.00000e+00    0.00000e+00    5.15615e+00    2.29152e+00    5.72916e-01    5.72950e-01    5.72853e-01    5.72950e-01    1.43376e-01    1.43105e-01    1.43376e-01    1.43105e-01    2.90208e+00    9.79636e-01    7.25520e-01    5.37695e-01    7.25520e-01    2.44909e-01    1.34424e-01    1.34424e-01    2.44909e-01
    7.00000e+00    0.00000e+00    0.00000e+00    0.00000e+00    5.15570e+00    2.29133e+00    5.72854e-01    5.72904e-01    5.72803e-01    5.72904e-01    1.43401e-01    1.43053e-01    1.43401e-01    1.43053e-01    2.90208e+00    9.79636e-01    7.25520e-01    5.37695e-01    7.25520e-01    2.44909e-01    1.34424e-01    1.34424e-01    2.44909e-01
    8.00000e+00    0.00000e+00    0.00000e+00    0.00000e+00    5.15520e+00    2.29111e+00    5.72816e-01    5.72843e-01    5.72742e-01    5.72843e-01    1.43428e-01    1.42995e-01    1.43428e-01    1.42995e-01    2.90208e+00    9.79636e-01    7.25520e-01    5.37695e-01    7.25520e-01    2.44909e-01    1.34424e-01    1.34424e-01    2.44909e-01
    9.00000e+00    0.00000e+00    0.00000e+00    0.00000e+00    5.15462e+00    2.29086e+00    5.72748e-01    5.72778e-01    5.72677e-01    5.72778e-01    1.43451e-01    1.42940e-01    1.43451e-01    1.42940e-01    2.90208e+00    9.79636e-01    7.25520e-01    5.37695e-01    7.25520e-01    2.44909e-01    1.34424e-01    1.34424e-01    2.44909e-01
    1.00000e+01    0.00000e+00    0.00000e+00    0.00000e+00    5.15398e+00    2.29058e+00    5.72689e-01    5.72704e-01    5.72602e-01    5.72704e-01    1.43472e-01    1.42881e-01    1.43472e-01    1.42881e-01    2.90208e+00    9.79636e-01    7.25520e-01    5.37695e-01    7.25520e-01    2.44909e-01    1.34424e-01    1.34424e-01    2.44909e-01
    1.10000e+01    0.00000e+00    0.00000e+00    0.00000e+00    5.15327e+00    2.29027e+00    5.72611e-01    5.72624e-01    5.72521e-01    5.72624e-01    1.43490e-01    1.42822e-01    1.43490e-01    1.42822e-01    2.90208e+00    9.79636e-01    7.25520e-01    5.37695e-01    7.25520e-01    2.44909e-01    1.34424e-01    1.34424e-01    2.44909e-01
    1.20000e+01    0.00000e+00    0.00000e+00    0.00000e+00    5.15250e+00    2.28993e+00    5.72534e-01    5.72535e-01    5.72432e-01    5.72535e-01    1.43505e-01    1.42763e-01    1.43505e-01    1.42763e-01    2.90208e+00    9.79636e-01    7.25520e-01    5.37695e-01    7.25520e-01    2.44909e-01    1.34424e-01    1.34424e-01    2.44909e-01
    1.30000e+01    0.00000e+00    0.00000e+00    0.00000e+00    5.15166e+00    2.28956e+00    5.72443e-01    5.72440e-01    5.72337e-01    5.72440e-01    1.43516e-01    1.42705e-01    1.43516e-01    1.42705e-01    2.90208e+00    9.79636e-01    7.25520e-01    5.37695e-01    7.25520e-01    2.44909e-01    1.34424e-01    1.34424e-01    2.44909e-01
    1.40000e+01    0.00000e+00    0.00000e+00    0.00000e+00    5.15077e+00    2.28917e+00    5.72350e-01    5.72338e-01    5.72234e-01    5.72338e-01    1.43523e-01    1.42647e-01    1.43523e-01    1.42647e-01    2.90208e+00    9.79636e-01    7.25520e-01    5.37695e-01    7.25520e-01    2.44909e-01    1.34424e-01    1.34424e-01    2.44909e-01
    1.50000e+01    0.00000e+00    0.00000e+00    0.00000e+00    5.14981e+00    2.28875e+00    5.72248e-01    5.72229e-01    5.72126e-01    5.72229e-01    1.43524e-01    1.42591e-01    1.43524e-01    1.42591e-01    2.90208e+00    9.79636e-01    7.25520e-01    5.37695e-01    7.25520e-01    2.44909e-01    1.34424e-01    1.34424e-01    2.44909e-01
    1.60000e+01    0.00000e+00    0.00000e+00    0.00000e+00    5.14881e+00    2.28831e+00    5.72141e-01    5.72115e-01    5.72013e-01    5.72115e-01    1.43519e-01    1.42539e-01    1.43519e-01    1.42539e-01    2.90208e+00    9.79636e-01    7.25520e-01    5.37695e-01    7.25520e-01    2.44909e-01    1.34424e-01    1.34424e-01    2.44909e-01
    1.70000e+01    0.00000e+00    0.00000e+00    0.00000e+00    5.14776e+00    2.28785e+00    5.72027e-01    5.71996e-01    5.71895e-01    5.71996e-01    1.43508e-01    1.42490e-01    1.43508e-01    1.42490e-01    2.90208e+00    9.79636e-01    7.25520e-01    5.37695e-01    7.25520e-01    2.44909e-01    1.34424e-01    1.34424e-01    2.44909e-01
    1.80000e+01    0.00000e+00    0.00000e+00    0.00000e+00    5.14667e+00    2.28737e+00    5.71911e-01    5.71873e-01    5.71774e-01    5.71873e-01    1.43490e-01    1.42446e-01    1.43490e-01    1.42446e-01    2.90208e+00    9.79636e-01    7.25520e-01    5.37695e-01    7.25520e-01    2.44909e-01    1.34424e-01    1.34424e-01    2.44909e-01
    1.90000e+01    0.00000e+00    0.00000e+00    0.00000e+00    5.14556e+00    2.28688e+00    5.71790e-01    5.71747e-01    5.71651e-01    5.71747e-01    1.43462e-01    1.42409e-01    1.43462e-01    1.42409e-01    2.90208e+00    9.79636e-01    7.25520e-01    5.37695e-01    7.25520e-01    2.44909e-01    1.34424e-01    1.34424e-01    2.44909e-01
    2.00000e+01    0.00000e+00    0.00000e+00    0.00000e+00    5.14443e+00    2.28639e+00    5.71667e-01    5.71619e-01    5.71526e-01    5.71619e-01    1.43426e-01    1.42380e-01    1.43426e-01    1.42380e-01    2.90208e+00    9.79636e-01    7.25520e-01    5.37695e-01    7.25520e-01    2.44909e-01    1.34424e-01    1.34424e-01    2.44909e-01
    2.10000e+01    0.00000e+00    0.00000e+00    0.00000e+00    5.14329e+00    2.28589e+00    5.71543e-01    5.71490e-01    5.71401e-01    5.71490e-01    1.43381e-01    1.42359e-01    1.43381e-01    1.42359e-01    2.90208e+00    9.79636e-01    7.25520e-01    5.37695e-01    7.25520e-01    2.44909e-01    1.34424e-01    1.34424e-01    2.44909e-01
    2.20000e+01    0.00000e+00    0.00000e+00    0.00000e+00    5.14215e+00    2.28539e+00    5.71418e-01    5.71361e-01    5.71277e-01    5.71361e-01    1.43326e-01    1.42347e-01    1.43326e-01    1.42347e-01    2.90208e+00    9.79636e-01    7.25520e-01    5.37695e-01    7.25520e-01    2.44909e-01    1.34424e-01    1.34424e-01    2.44909e-01
    2.30000e+01    0.00000e+00    0.00000e+00    0.00000e+00    5.14102e+00    2.28490e+00    5.71293e-01    5.71233e-01    5.71155e-01    5.71233e-01    1.43262e-01    1.42345e-01    1.43262e-01    1.42345e-01    2.90208e+00    9.79636e-01    7.25520e-01    5.37695e-01    7.25520e-01    2.44909e-01    1.34424e-01    1.34424e-01    2.44909e-01
    2.40000e+01    0.00000e+00    0.00000e+00    0.00000e+00    5.13992e+00    2.28441e+00    5.71171e-01    5.71107e-01    5.71035e-01    5.71107e-01    1.43191e-01    1.42351e-01    1.43191e-01    1.42351e-01    2.90208e+00    9.79636e-01    7.25520e-01    5.37695e-01    7.25520e-01    2.44909e-01    1.34424e-01    1.34424e-01    2.44909e-01
    2.50000e+01    0.00000e+00    0.00000e+00    0.00000e+00    5.13883e+00    2.28394e+00    5.71051e-01    5.70983e-01    5.70919e-01    5.70983e-01    1.43114e-01    1.42365e-01    1.43114e-01    1.42365e-01    2.90208e+00    9.79636e-01    7.25520e-01    5.37695e-01    7.25520e-01    2.44909e-01    1.34424e-01    1.34424e-01    2.44909e-01
    2.60000e+01    0.00000e+00    0.00000e+00    0.00000e+00    5.13778e+00    2.28348e+00    5.70934e-01    5.70863e-01    5.70807e-01    5.70863e-01    1.43032e-01    1.42386e-01    1.43032e-01    1.42386e-01    2.90208e+00    9.79636e-01    7.25520e-01    5.37695e-01    7.25520e-01    2.44909e-01    1.34424e-01    1.34424e-01    2.44909e-01
    2.70000e+01    0.00000e+00    0.00000e+00    0.00000e+00    5.13678e+00    2.28304e+00    5.70822e-01    5.70746e-01    5.70699e-01    5.70746e-01    1.42948e-01    1.42411e-01    1.42948e-01    1.42411e-01    2.90208e+00    9.79636e-01    7.25520e-01    5.37695e-01    7.25520e-01    2.44909e-01    1.34424e-01    1.34424e-01    2.44909e-01
    2.80000e+01    0.00000e+00    0.00000e+00    0.00000e+00    5.13582e+00    2.28263e+00    5.70714e-01    5.70635e-01    5.70600e-01    5.70635e-01    1.42866e-01    1.42439e-01    1.42866e-01    1.42439e-01    2.90208e+00    9.79636e-01    7.25520e-01    5.37695e-01    7.25520e-01    2.44909e-01    1.34424e-01    1.34424e-01    2.44909e-01
    2.90000e+01    0.00000e+00    0.00000e+00    0.00000e+00    5.13491e+00    2.28223e+00    5.70613e-01    5.70530e-01    5.70503e-01    5.70530e-01    1.42786e-01    1.42467e-01    1.42786e-01    1.42467e-01    2.90208e+00    9.79636e-01    7.25520e-01    5.37695e-01    7.25520e-01    2.44909e-01    1.34424e-01    1.34424e-01    2.44909e-01
    3.00000e+01    0.00000e+00    0.00000e+00    0.00000e+00    5.13408e+00    2.28187e+00    5.70517e-01    5.70430e-01    5.70419e-01    5.70430e-01    1.42713e-01    1.42493e-01    1.42713e-01    1.42493e-01    2.90208e+00    9.79636e-01    7.25520e-01    5.37695e-01    7.25520e-01    2.44909e-01    1.34424e-01    1.34424e-01    2.44909e-01
    3.10000e+01    0.00000e+00    0.00000e+00    0.00000e+00    5.13330e+00    2.28153e+00    5.70429e-01    5.70339e-01    5.70334e-01    5.70339e-01    1.42649e-01    1.42516e-01    1.42649e-01    1.42516e-01    2.90208e+00    9.79636e-01    7.25520e-01    5.37695e-01    7.25520e-01    2.44909e-01    1.34424e-01    1.34424e-01    2.44909e-01
    3.20000e+01    0.00000e+00    0.00000e+00    0.00000e+00    5.13261e+00    2.28123e+00    5.70347e-01    5.70254e-01    5.70271e-01    5.70254e-01    1.42593e-01    1.42533e-01    1.42593e-01    1.42533e-01    2.90208e+00    9.79636e-01    7.25520e-01    5.37695e-01    7.25520e-01    2.44909e-01    1.34424e-01    1.34424e-01    2.44909e-01
    3.30000e+01    0.00000e+00    0.00000e+00    0.00000e+00    5.13199e+00    2.28096e+00    5.70277e-01    5.70184e-01    5.70198e-01    5.70184e-01    1.42550e-01    1.42543e-01    1.42550e-01    1.42543e-01    2.90208e+00    9.79636e-01    7.25520e-01    5.37695e-01    7.25520e-01    2.44909e-01    1.34424e-01    1.34424e-01    2.44909e-01
    3.40000e+01    0.00000e+00    0.00000e+00    0.00000e+00    5.13148e+00    2.28074e+00    5.70211e-01    5.70116e-01    5.70166e-01    5.70116e-01    1.42521e-01    1.42545e-01    1.42521e-01    1.42545e-01    2.90208e+00    9.79636e-01    7.25520e-01    5.37695e-01    7.25520e-01    2.44909e-01    1.34424e-01    1.34424e-01    2.44909e-01
    3.50000e+01    0.00000e+00    0.00000e+00    0.00000e+00    5.13100e+00    2.28053e+00    5.70165e-01    5.70064e-01    5.70088e-01    5.70064e-01    1.42500e-01    1.42545e-01    1.42500e-01    1.42545e-01    2.90208e+00    9.79636e-01    7.25520e-01    5.37695e-01    7.25520e-01    2.44909e-01    1.34424e-01    1.34424e-01    2.44909e-01
    3.60000e+01    0.00000e+00    0.00000e+00    0.00000e+00    5.13074e+00    2.28042e+00    5.70107e-01    5.70000e-01    5.70123e-01    5.70000e-01    1.42517e-01    1.42529e-01    1.42517e-01    1.42529e-01    2.90208e+00    9.79636e-01    7.25520e-01    5.37695e-01    7.25520e-01    2.44909e-01    1.34424e-01    1.34424e-01    2.44909e-01
    3.70000e+01    0.00000e+00    0.00000e+00    0.00000e+00    5.13043e+00    2.28028e+00    5.70104e-01    5.70006e-01    5.70005e-01    5.70006e-01    1.42503e-01    1.42510e-01    1.42503e-01    1.42510e-01    2.90208e+00    9.79636e-01    7.25520e-01    5.37695e-01    7.25520e-01    2.44909e-01    1.34424e-01    1.34424e-01    2.44909e-01
    3.80000e+01    0.00000e+00    0.00000e+00    0.00000e+00    5.13033e+00    2.28024e+00    5.70043e-01    5.69955e-01    5.70125e-01    5.69955e-01    1.42515e-01    1.42492e-01    1.42515e-01    1.42492e-01    2.90208e+00    9.79636e-01    7.25520e-01    5.37695e-01    7.25520e-01    2.44909e-01    1.34424e-01    1.34424e-01    2.44909e-01
    3.90000e+01    0.00000e+00    0.00000e+00    0.00000e+00    5.13069e+00    2.28041e+00    5.70075e-01    5.70074e-01    5.70075e-01    5.70074e-01    1.42525e-01    1.42467e-01    1.42525e-01    1.42467e-01    2.90208e+00    9.79636e-01    7.25520e-01    5.37695e-01    7.25520e-01    2.44909e-01    1.34424e-01    1.34424e-01    2.44909e-01
    0.00000e+00    1.00000e+00    0.00000e+00    0.00000e+00    5.15746e+00    2.29209e+00    5.73128e-01    5.72944e-01    5.73128e-01    5.73044e-01    1.43311e-01    1.43253e-01    1.43311e-01    1.43253e-01    2.90208e+00    9.79636e-01    7.25520e-01    5.37695e-01    7.25520e-01    2.44909e-01    1.34424e-01    1.34424e-01    2.44909e-01
    1.00000e+00    1.00000e+00   -9.12511e-05   -8.59803e-05    5.15740e+00    2.29206e+00    5.72934e-01    5.72918e-01    5.73234e-01    5.73193e-01    1.43184e-01    1.43262e-01    1.43353e-01    1.43261e-01    2.90208e+00    9.79636e-01    7.25520e-01    5.37695e-01    7.25520e-01    2.44909e-01    1.34424e-01    1.34424e-01    2.44909e-01
    2.00000e+00    1.00000e+00   -1.48356e-04   -5.51636e-05    5.15730e+00    2.29202e+00    5.72787e-01    5.72951e-01    5.73306e-01    5.73123e-01    1.43225e-01    1.43275e-01    1.43404e-01    1.43209e-01    2.90208e+00    9.79636e-01    7.25520e-01    5.37695e-01    7.25520e-01    2.44909e-01    1.34424e-01    1.34424e-01    2.44909e-01
    3.00000e+00    1.00000e+00   -2.25944e-04   -4.82195e-05    5.15713e+00    2.29194e+00    5.72704e-01    5.72884e-01    5.73483e-01    5.73039e-01    1.43213e-01    1.43276e-01    1.43453e-01    1.43130e-01    2.90208e+00    9.79636e-01    7.25520e-01    5.37695e-01    7.25520e-01    2.44909e-01    1.34424e-01    1.34424e-01    2.44909e-01
    4.00000e+00    1.00000e+00   -3.50571e-04   -1.64200e-05    5.15688e+00    2.29184e+00    5.72492e-01    5.72898e-01    5.73693e-01    5.72932e-01    1.43195e-01    1.43293e-01    1.43524e-01    1.43015e-01    2.90208e+00    9.79636e-01    7.25520e-01    5.37695e-01    7.25520e-01    2.44909e-01    1.34424e-01    1.34424e-01    2.44909e-01
    5.00000e+00    1.00000e+00   -5.02091e-04   -1.11515e-06    5.15655e+00    2.29169e+00    5.72222e-01    5.72854e-01    5.73945e-01    5.72836e-01    1.43171e-01    1.43316e-01    1.43615e-01    1.42895e-01    2.90208e+00    9.79636e-01    7.25520e-01    5.37695e-01    7.25520e-01    2.44909e-01    1.34424e-01    1.34424e-01    2.44909e-01
    6.00000e+00    1.00000e+00   -6.71359e-04    7.48964e-06    5.15617e+00    2.29153e+00    5.71899e-01    5.72823e-01    5.74201e-01    5.72772e-01    1.43130e-01    1.43336e-01    1.43716e-01    1.42762e-01    2.90208e+00    9.79636e-01    7.25520e-01    5.37695e-01    7.25520e-01    2.44909e-01    1.34424e-01    1.34424e-01    2.44909e-01
    7.00000e+00    1.00000e+00   -8.46324e-04    1.25548e-05    5.15572e+00    2.29133e+00    5.71553e-01    5.72771e-01    5.74459e-01    5.72702e-01    1.43090e-01    1.43358e-01    1.43822e-01    1.42632e-01    2.90208e+00    9.79636e-01    7.25520e-01    5.37695e-01    7.25520e-01    2.44909e-01    1.34424e-01    1.34424e-01    2.44909e-01
    8.00000e+00    1.00000e+00   -1.02508e-03    1.82603e-05    5.15521e+00    2.29111e+00    5.71196e-01    5.72721e-01    5.74713e-01    5.72631e-01    1.43048e-01    1.43374e-01    1.43929e-01    1.42489e-01    2.90208e+00    9.79636e-01    7.25520e-01    5.37695e-01    7.25520e-01    2.44909e-01    1.34424e-01    1.34424e-01    2.44909e-01
    9.00000e+00    1.00000e+00   -1.20440e-03    2.05465e-05    5.15464e+00    2.29086e+00    5.70824e-01    5.72660e-01    5.74958e-01    5.72561e-01    1.43001e-01    1.43391e-01    1.44034e-01    1.42350e-01    2.90208e+00    9.79636e-01    7.25520e-01    5.37695e-01    7.25520e-01    2.44909e-01    1.34424e-01    1.34424e-01    2.44909e-01
    1.00000e+01    1.00000e+00   -1.38063e-03    2.28160e-05    5.15400e+00    2.29058e+00    5.70449e-01    5.72594e-01    5.75186e-01    5.72487e-01    1.42954e-01    1.43403e-01    1.44138e-01    1.42209e-01    2.90208e+00    9.79636e-01    7.25520e-01    5.37695e-01    7.25520e-01    2.44909e-01    1.34424e-01    1.34424e-01    2.44909e-01
    1.10000e+01    1.00000e+00   -1.55130e-03    2.31120e-05    5.15329e+00    2.29027e+00    5.70072e-01    5.72518e-01    5.75396e-01    5.72410e-01    1.42905e-01    1.43413e-01    1.44235e-01    1.42073e-01    2.90208e+00    9.79636e-01    7.25520e-01    5.37695e-01    7.25520e-01    2.44909e-01    1.34424e-01    1.34424e-01    2.44909e-01
    1.20000e+01    1.00000e+00   -1.71443e-03    2.26791e-05    5.15252e+00    2.28993e+00    5.69701e-01    5.72438e-01    5.75583e-01    5.72331e-01    1.42855e-01    1.43419e-01    1.44325e-01    1.41938e-01    2.90208e+00    9.79636e-01    7.25520e-01    5.37695e-01    7.25520e-01    2.44909e-01    1.34424e-01    1.34424e-01    2.44909e-01
    1.30000e+01    1.00000e+00   -1.86741e-03    2.04476e-05    5.15168e+00    2.28956e+00    5.69336e-01    5.72348e-01    5.75743e-01    5.72250e-01    1.42804e-01    1.43422e-01    1.44407e-01    1.41812e-01    2.90208e+00    9.79636e-01    7.25520e-01    5.37695e-01    7.25520e-01    2.44909e-01    1.34424e-01    1.34424e-01    2.44909e-01
    1.40000e+01    1.00000e+00   -2.00715e-03    1.72948e-05    5.15078e+00    2.28916e+00    5.68985e-01    5.72253e-01    5.75870e-01    5.72166e-01    1.42754e-01    1.43420e-01    1.44479e-01    1.41692e-01    2.90208e+00    9.79636e-01    7.25520e-01    5.37695e-01    7.25520e-01    2.44909e-01    1.34424e-01    1.34424e-01    2.44909e-01
    1.50000e+01    1.00000e+00   -2.13035e-03    1.18084e-05    5.14982e+00    2.28874e+00    5.68652e-01    5.72151e-01    5.75959e-01    5.72085e-01    1.42703e-01    1.43413e-01    1.44538e-01    1.41584e-01    2.90208e+00    9.79636e-01    7.25520e-01    5.37695e-01    7.25520e-01    2.44909e-01    1.34424e-01    1.34424e-01    2.44909e-01
    1.60000e+01    1.00000e+00   -2.23337e-03    4.65321e-06    5.14881e+00    2.28829e+00    5.68345e-01    5.72044e-01    5.76004e-01    5.72005e-01    1.42654e-01    1.43401e-01    1.44582e-01    1.41488e-01    2.90208e+00    9.79636e-01    7.25520e-01    5.37695e-01    7.25520e-01    2.44909e-01    1.34424e-01    1.34424e-01    2.44909e-01
    1.70000e+01    1.00000e+00   -2.31212e-03   -4.02500e-06    5.14776e+00    2.28783e+00    5.68070e-01    5.71932e-01    5.75998e-01    5.71925e-01    1.42608e-01    1.43383e-01    1.44609e-01    1.41409e-01    2.90208e+00    9.79636e-01    7.25520e-01    5.37695e-01    7.25520e-01    2.44909e-01    1.34424e-01    1.34424e-01    2.44909e-01
    1.80000e+01    1.00000e+00   -2.36267e-03   -1.45657e-05    5.14667e+00    2.28735e+00    5.67836e-01    5.71816e-01    5.75935e-01    5.71849e-01    1.42565e-01    1.43358e-01    1.44616e-01    1.41349e-01    2.90208e+00    9.79636e-01    7.25520e-01    5.37695e-01    7.25520e-01    2.44909e-01    1.34424e-01    1.34424e-01    2.44909e-01
    1.90000e+01    1.00000e+00   -2.38148e-03   -2.70070e-05    5.14555e+00    2.28686e+00    5.67650e-01    5.71697e-01    5.75812e-01    5.71778e-01    1.42525e-01    1.43326e-01    1.44600e-01    1.41309e-01    2.90208e+00    9.79636e-01    7.25520e-01    5.37695e-01    7.25520e-01    2.44909e-01    1.34424e-01    1.34424e-01    2.44909e-01
    2.00000e+01    1.00000e+00   -2.36552e-03   -3.97186e-05    5.14442e+00    2.28636e+00    5.67519e-01    5.71577e-01    5.75624e-01    5.71706e-01    1.42492e-01    1.43287e-01    1.44561e-01    1.41293e-01    2.90208e+00    9.79636e-01    7.25520e-01    5.37695e-01    7.25520e-01    2.44909e-01    1.34424e-01    1.34424e-01    2.44909e-01
    2.10000e+01    1.00000e+00   -2.31290e-03   -5.28277e-05    5.14328e+00    2.28586e+00    5.67448e-01    5.71456e-01    5.75372e-01    5.71636e-01    1.42465e-01    1.43241e-01    1.44498e-01    1.41301e-01    2.90208e+00    9.79636e-01    7.25520e-01    5.37695e-01    7.25520e-01    2.44909e-01    1.34424e-01    1.34424e-01    2.44909e-01
    2.20000e+01    1.00000e+00   -2.22325e-03   -6.61069e-05    5.14213e+00    2.28536e+00    5.67442e-01    5.71336e-01    5.75056e-01    5.71567e-01    1.42445e-01    1.43188e-01    1.44408e-01    1.41333e-01    2.90208e+00    9.79636e-01    7.25520e-01    5.37695e-01    7.25520e-01    2.44909e-01    1.34424e-01    1.34424e-01    2.44909e-01
    2.30000e+01    1.00000e+00   -2.09761e-03   -7.76384e-05    5.14100e+00    2.28487e+00    5.67500e-01    5.71217e-01    5.74681e-01    5.71493e-01    1.42433e-01    1.43129e-01    1.44295e-01    1.41389e-01    2.90208e+00    9.79636e-01    7.25520e-01    5.37695e-01    7.25520e-01    2.44909e-01    1.34424e-01    1.34424e-01    2.44909e-01
    2.40000e+01    1.00000e+00   -1.93896e-03   -8.65180e-05    5.13989e+00    2.28438e+00    5.67620e-01    5.71100e-01    5.74256e-01    5.71412e-01    1.42428e-01    1.43064e-01    1.44160e-01    1.41466e-01    2.90208e+00    9.79636e-01    7.25520e-01    5.37695e-01    7.25520e-01    2.44909e-01    1.34424e-01    1.34424e-01    2.44909e-01
    2.50000e+01    1.00000e+00   -1.75227e-03   -9.30296e-05    5.13880e+00    2.28391e+00    5.67796e-01    5.70986e-01    5.73791e-01    5.71326e-01    1.42431e-01    1.42996e-01    1.44005e-01    1.41561e-01    2.90208e+00    9.79636e-01    7.25520e-01    5.37695e-01    7.25520e-01    2.44909e-01    1.34424e-01    1.34424e-01    2.44909e-01
    2.60000e+01    1.00000e+00   -1.54392e-03   -9.55363e-05    5.13775e+00    2.28345e+00    5.68021e-01    5.70877e-01    5.73301e-01    5.71229e-01    1.42439e-01    1.42926e-01    1.43835e-01    1.41670e-01    2.90208e+00    9.79636e-01    7.25520e-01    5.37695e-01    7.25520e-01    2.44909e-01    1.34424e-01    1.34424e-01    2.44909e-01
    2.70000e+01    1.00000e+00   -1.32178e-03   -9.32142e-05    5.13675e+00    2.28302e+00    5.68282e-01    5.70773e-01    5.72800e-01    5.71119e-01    1.42454e-01    1.42857e-01    1.43656e-01    1.41787e-01    2.90208e+00    9.79636e-01    7.25520e-01    5.37695e-01    7.25520e-01    2.44909e-01    1.34424e-01    1.34424e-01    2.44909e-01
    2.80000e+01    1.00000e+00   -1.09475e-03   -8.64602e-05    5.13579e+00    2.28260e+00    5.68566e-01    5.70675e-01    5.72306e-01    5.70999e-01    1.42471e-01    1.42790e-01    1.43473e-01    1.41908e-01    2.90208e+00    9.79636e-01    7.25520e-01    5.37695e-01    7.25520e-01    2.44909e-01    1.34424e-01    1.34424e-01    2.44909e-01
    2.90000e+01    1.00000e+00   -8.72095e-04   -7.55362e-05    5.13489e+00    2.28221e+00    5.68858e-01    5.70581e-01    5.71834e-01    5.70868e-01    1.42491e-01    1.42727e-01    1.43293e-01    1.42027e-01    2.90208e+00    9.79636e-01    7.25520e-01    5.37695e-01    7.25520e-01    2.44909e-01    1.34424e-01    1.34424e-01    2.44909e-01
    3.00000e+01    1.00000e+00   -6.62491e-04   -5.99067e-05    5.13406e+00    2.28185e+00    5.69142e-01    5.70497e-01    5.71400e-01    5.70728e-01    1.42511e-01    1.42670e-01    1.43120e-01    1.42137e-01    2.90208e+00    9.79636e-01    7.25520e-01    5.37695e-01    7.25520e-01    2.44909e-01    1.34424e-01    1.34424e-01    2.44909e-01
    3.10000e+01    1.00000e+00   -4.74072e-04   -4.07783e-05    5.13329e+00    2.28152e+00    5.69405e-01    5.70419e-01    5.71019e-01    5.70582e-01    1.42529e-01    1.42622e-01    1.42962e-01    1.42235e-01    2.90208e+00    9.79636e-01    7.25520e-01    5.37695e-01    7.25520e-01    2.44909e-01    1.34424e-01    1.34424e-01    2.44909e-01
    3.20000e+01    1.00000e+00   -3.14241e-04   -1.87695e-05    5.13261e+00    2.28122e+00    5.69634e-01    5.70351e-01    5.70702e-01    5.70434e-01    1.42543e-01    1.42583e-01    1.42822e-01    1.42316e-01    2.90208e+00    9.79636e-01    7.25520e-01    5.37695e-01    7.25520e-01    2.44909e-01    1.34424e-01    1.34424e-01    2.44909e-01
    3.30000e+01    1.00000e+00   -1.87817e-04    3.92730e-06    5.13200e+00    2.28096e+00    5.69818e-01    5.70286e-01    5.70453e-01    5.70287e-01    1.42555e-01    1.42555e-01    1.42708e-01    1.42380e-01    2.90208e+00    9.79636e-01    7.25520e-01    5.37695e-01    7.25520e-01    2.44909e-01    1.34424e-01    1.34424e-01    2.44909e-01
    3.40000e+01    1.00000e+00   -9.41013e-05    2.53406e-05    5.13149e+00    2.28074e+00    5.69951e-01    5.70241e-01    5.70267e-01    5.70163e-01    1.42560e-01    1.42530e-01    1.42617e-01    1.42420e-01    2.90208e+00    9.79636e-01    7.25520e-01    5.37695e-01    7.25520e-01    2.44909e-01    1.34424e-01    1.34424e-01    2.44909e-01
    3.50000e+01    1.00000e+00   -3.75886e-05    5.00971e-05    5.13105e+00    2.28055e+00    5.70041e-01    5.70188e-01    5.70165e-01    5.70026e-01    1.42560e-01    1.42529e-01    1.42546e-01    1.42447e-01    2.90208e+00    9.79636e-01    7.25520e-01    5.37695e-01    7.25520e-01    2.44909e-01    1.34424e-01    1.34424e-01    2.44909e-01
    3.60000e+01    1.00000e+00   -1.48201e-05    7.89990e-05    5.13073e+00    2.28041e+00    5.70067e-01    5.70190e-01    5.70117e-01    5.69917e-01    1.42555e-01    1.42527e-01    1.42502e-01    1.42447e-01    2.90208e+00    9.79636e-01    7.25520e-01    5.37695e-01    7.25520e-01    2.44909e-01    1.34424e-01    1.34424e-01    2.44909e-01
    3.70000e+01    1.00000e+00   -3.25247e-05    8.28343e-05    5.13052e+00    2.28032e+00    5.70064e-01    5.70122e-01    5.70184e-01    5.69845e-01    1.42530e-01    1.42536e-01    1.42479e-01    1.42439e-01    2.90208e+00    9.79636e-01    7.25520e-01    5.37695e-01    7.25520e-01    2.44909e-01    1.34424e-01    1.34424e-01    2.44909e-01
    3.80000e+01    1.00000e+00   -4.98765e-05    9.24008e-05    5.13040e+00    2.28027e+00    5.69979e-01    5.70147e-01    5.70130e-01    5.69842e-01    1.42527e-01    1.42574e-01    1.42495e-01    1.42437e-01    2.90208e+00    9.79636e-01    7.25520e-01    5.37695e-01    7.25520e-01    2.44909e-01    1.34424e-01    1.34424e-01    2.44909e-01
    3.90000e+01    1.00000e+00    0.00000e+00    0.00000e+00    5.13033e+00    2.28024e+00    5.69978e-01    5.70126e-01    5.69978e-01    5.70045e-01    1.42515e-01    1.42469e-01    1.42515e-01    1.42469e-01    2.90208e+00    9.79636e-01    7.25520e-01    5.37695e-01    7.25520e-01    2.44909e-01    1.34424e-01    1.34424e-01    2.44909e-01
    0.00000e+00    2.00000e+00    0.00000e+00    0.00000e+00    5.15751e+00    2.29211e+00    5.73098e-01    5.73086e-01    5.73098e-01    5.73007e-01    1.43303e-01    1.43252e-01    1.43303e-01    1.43252e-01    2.90208e+00    9.79636e-01    7.25520e-01    5.37695e-01    7.25520e-01    2.44909e-01    1.34424e-01    1.34424e-01    2.44909e-01
    1.00000e+00    2.00000e+00   -1.17478e-04   -6.24195e-05    5.15740e+00    2.29206e+00    5.72969e-01    5.72820e-01    5.73375e-01    5.73042e-01    1.43210e-01    1.43306e-01    1.43360e-01    1.43256e-01    2.90208e+00    9.79636e-01    7.25520e-01    5.37695e-01    7.25520e-01    2.44909e-01    1.34424e-01    1.34424e-01    2.44909e-01
    2.00000e+00    2.00000e+00   -2.92842e-04   -1.93310e-05    5.15729e+00    2.29202e+00    5.72678e-01    5.72870e-01    5.73694e-01    5.72936e-01    1.43169e-01    1.43364e-01    1.43433e-01    1.43133e-01    2.90208e+00    9.79636e-01    7.25520e-01    5.37695e-01    7.25520e-01    2.44909e-01    1.34424e-01    1.34424e-01    2.44909e-01
    3.00000e+00    2.00000e+00   -5.06076e-04    4.21872e-05    5.15711e+00    2.29194e+00    5.72341e-01    5.72912e-01    5.74089e-01    5.72759e-01    1.43109e-01    1.43461e-01    1.43508e-01    1.42998e-01    2.90208e+00    9.79636e-01    7.25520e-01    5.37695e-01    7.25520e-01    2.44909e-01    1.34424e-01    1.34424e-01    2.44909e-01
    4.00000e+00    2.00000e+00   -7.69603e-04    1.10335e-04    5.15684e+00    2.29182e+00    5.71909e-01    5.72950e-01    5.74561e-01    5.72562e-01    1.43054e-01    1.43557e-01    1.43622e-01    1.42808e-01    2.90208e+00    9.79636e-01    7.25520e-01    5.37695e-01    7.25520e-01    2.44909e-01    1.34424e-01    1.34424e-01    2.44909e-01
    5.00000e+00    2.00000e+00   -1.07035e-03    1.60823e-04    5.15654e+00    2.29169e+00    5.71380e-01    5.72968e-01    5.75073e-01    5.72410e-01    1.42983e-01    1.43662e-01    1.43761e-01    1.42614e-01    2.90208e+00    9.79636e-01    7.25520e-01    5.37695e-01    7.25520e-01    2.44909e-01    1.34424e-01    1.34424e-01    2.44909e-01