TITLE="LBM output"
VARIABLES = "X", "Y", "U","V","density","f0","f1","f2","f3","f4","f5","f6","f7","f8","feq0","feq1","feq2","feq3","feq4","feq5","feq6","feq7","feq8",
ZONE T = "fluid", I=40, J=40, F=POINT
SOLUTIONTIME=788
    0.00000e+00    0.00000e+00    0.00000e+00    0.00000e+00    5.09807e+00    2.26545e+00    5.66467e-01    5.66464e-01    5.66467e-01    5.66464e-01    1.41786e-01    1.41591e-01    1.41786e-01    1.41591e-01    2.86672e+00    9.67701e-01    7.16681e-01    5.31144e-01    7.16681e-01    2.41925e-01    1.32786e-01    1.32786e-01    2.41925e-01
    1.00000e+00    0.00000e+00    0.00000e+00    0.00000e+00    5.09952e+00    2.26609e+00    5.66285e-01    5.66854e-01    5.66594e-01    5.66854e-01    1.41788e-01    1.41633e-01    1.41788e-01    1.41633e-01    2.86672e+00    9.67701e-01    7.16681e-01    5.31144e-01    7.16681e-01    2.41925e-01    1.32786e-01    1.32786e-01    2.41925e-01
    2.00000e+00    0.00000e+00    0.00000e+00    0.00000e+00    5.09986e+00    2.26624e+00    5.66702e-01    5.66779e-01    5.66515e-01    5.66779e-01    1.41828e-01    1.41592e-01    1.41828e-01    1.41592e-01    2.86672e+00    9.67701e-01    7.16681e-01    5.31144e-01    7.16681e-01    2.41925e-01    1.32786e-01    1.32786e-01    2.41925e-01
    3.00000e+00    0.00000e+00    0.00000e+00    0.00000e+00    5.09974e+00    2.26620e+00    5.66456e-01    5.66855e-01    5.66596e-01    5.66855e-01    1.41876e-01    1.41513e-01    1.41876e-01    1.41513e-01    2.86672e+00    9.67701e-01    7.16681e-01    5.31144e-01    7.16681e-01    2.41925e-01    1.32786e-01    1.32786e-01    2.41925e-01
    4.00000e+00    0.00000e+00    0.00000e+00    0.00000e+00    5.10011e+00    2.26637e+00    5.66624e-01    5.66827e-01    5.66587e-01    5.66827e-01    1.41926e-01    1.41509e-01    1.41926e-01    1.41509e-01    2.86672e+00    9.67701e-01    7.16681e-01    5.31144e-01    7.16681e-01    2.41925e-01    1.32786e-01    1.32786e-01    2.41925e-01
    5.00000e+00    0.00000e+00    0.00000e+00    0.00000e+00    5.10014e+00    2.26640e+00    5.66573e-01    5.66838e-01    5.66614e-01    5.66838e-01    1.41992e-01    1.41445e-01    1.41992e-01    1.41445e-01    2.86672e+00    9.67701e-01    7.16681e-01    5.31144e-01    7.16681e-01    2.41925e-01    1.32786e-01    1.32786e-01    2.41925e-01
    6.00000e+00    0.00000e+00    0.00000e+00    0.00000e+00    5.10026e+00    2.26647e+00    5.66624e-01    5.66837e-01    5.66619e-01    5.66837e-01    1.42049e-01    1.41386e-01    1.42049e-01    1.41386e-01    2.86672e+00    9.67701e-01    7.16681e-01    5.31144e-01    7.16681e-01    2.41925e-01    1.32786e-01    1.32786e-01    2.41925e-01
    7.00000e+00    0.00000e+00    0.00000e+00    0.00000e+00    5.10027e+00    2.26649e+00    5.66615e-01    5.66838e-01    5.66624e-01    5.66838e-01    1.42104e-01    1.41326e-01    1.42104e-01    1.41326e-01    2.86672e+00    9.67701e-01    7.16681e-01    5.31144e-01    7.16681e-01    2.41925e-01    1.32786e-01    1.32786e-01    2.41925e-01
    8.00000e+00    0.00000e+00    0.00000e+00    0.00000e+00    5.10020e+00    2.26648e+00    5.66632e-01    5.66820e-01    5.66612e-01    5.66820e-01    1.42156e-01    1.41262e-01    1.42156e-01    1.41262e-01    2.86672e+00    9.67701e-01    7.16681e-01    5.31144e-01    7.16681e-01    2.41925e-01    1.32786e-01    1.32786e-01    2.41925e-01
    9.00000e+00    0.00000e+00    0.00000e+00    0.00000e+00    5.10002e+00    2.26642e+00    5.66615e-01    5.66792e-01    5.66593e-01    5.66792e-01    1.42202e-01    1.41202e-01    1.42202e-01    1.41202e-01    2.86672e+00    9.67701e-01    7.16681e-01    5.31144e-01    7.16681e-01    2.41925e-01    1.32786e-01    1.32786e-01    2.41925e-01
    1.00000e+01    0.00000e+00    0.00000e+00    0.00000e+00    5.09975e+00    2.26632e+00    5.66603e-01    5.66751e-01    5.66559e-01    5.66751e-01    1.42243e-01    1.41139e-01    1.42243e-01    1.41139e-01    2.86672e+00    9.67701e-01    7.16681e-01    5.31144e-01    7.16681e-01    2.41925e-01    1.32786e-01    1.32786e-01    2.41925e-01
    1.10000e+01    0.00000e+00    0.00000e+00    0.00000e+00    5.09935e+00    2.26617e+00    5.66567e-01    5.66697e-01    5.66514e-01    5.66697e-01    1.42278e-01    1.41076e-01    1.42278e-01    1.41076e-01    2.86672e+00    9.67701e-01    7.16681e-01    5.31144e-01    7.16681e-01    2.41925e-01    1.32786e-01    1.32786e-01    2.41925e-01
    1.20000e+01    0.00000e+00    0.00000e+00    0.00000e+00    5.09885e+00    2.26597e+00    5.66526e-01    5.66629e-01    5.66457e-01    5.66629e-01    1.42307e-01    1.41013e-01    1.42307e-01    1.41013e-01    2.86672e+00    9.67701e-01    7.16681e-01    5.31144e-01    7.16681e-01    2.41925e-01    1.32786e-01    1.32786e-01    2.41925e-01
    1.30000e+01    0.00000e+00    0.00000e+00    0.00000e+00    5.09825e+00    2.26572e+00    5.66469e-01    5.66551e-01    5.66391e-01    5.66551e-01    1.42330e-01    1.40951e-01    1.42330e-01    1.40951e-01    2.86672e+00    9.67701e-01    7.16681e-01    5.31144e-01    7.16681e-01    2.41925e-01    1.32786e-01    1.32786e-01    2.41925e-01
    1.40000e+01    0.00000e+00    0.00000e+00    0.00000e+00    5.09757e+00    2.26545e+00    5.66406e-01    5.66462e-01    5.66317e-01    5.66462e-01    1.42348e-01    1.40890e-01    1.42348e-01    1.40890e-01    2.86672e+00    9.67701e-01    7.16681e-01    5.31144e-01    7.16681e-01    2.41925e-01    1.32786e-01    1.32786e-01    2.41925e-01
    1.50000e+01    0.00000e+00    0.00000e+00    0.00000e+00    5.09682e+00    2.26514e+00    5.66332e-01    5.66366e-01    5.66237e-01    5.66366e-01    1.42360e-01    1.40830e-01    1.42360e-01    1.40830e-01    2.86672e+00    9.67701e-01    7.16681e-01    5.31144e-01    7.16681e-01    2.41925e-01    1.32786e-01    1.32786e-01    2.41925e-01
    1.60000e+01    0.00000e+00    0.00000e+00    0.00000e+00    5.09603e+00    2.26482e+00    5.66253e-01    5.66264e-01    5.66154e-01    5.66264e-01    1.42366e-01    1.40775e-01    1.42366e-01    1.40775e-01    2.86672e+00    9.67701e-01    7.16681e-01    5.31144e-01    7.16681e-01    2.41925e-01    1.32786e-01    1.32786e-01    2.41925e-01
    1.70000e+01    0.00000e+00    0.00000e+00    0.00000e+00    5.09522e+00    2.26448e+00    5.66171e-01    5.66161e-01    5.66071e-01    5.66161e-01    1.42366e-01    1.40723e-01    1.42366e-01    1.40723e-01    2.86672e+00    9.67701e-01    7.16681e-01    5.31144e-01    7.16681e-01    2.41925e-01    1.32786e-01    1.32786e-01    2.41925e-01
    1.80000e+01    0.00000e+00    0.00000e+00    0.00000e+00    5.09442e+00    2.26415e+00    5.66088e-01    5.66057e-01    5.65989e-01    5.66057e-01    1.42360e-01    1.40677e-01    1.42360e-01    1.40677e-01    2.86672e+00    9.67701e-01    7.16681e-01    5.31144e-01    7.16681e-01    2.41925e-01    1.32786e-01    1.32786e-01    2.41925e-01
    1.90000e+01    0.00000e+00    0.00000e+00    0.00000e+00    5.09363e+00    2.26383e+00    5.66005e-01    5.65956e-01    5.65911e-01    5.65956e-01    1.42348e-01    1.40639e-01    1.42348e-01    1.40639e-01    2.86672e+00    9.67701e-01    7.16681e-01    5.31144e-01    7.16681e-01    2.41925e-01    1.32786e-01    1.32786e-01    2.41925e-01
    2.00000e+01    0.00000e+00    0.00000e+00    0.00000e+00    5.09290e+00    2.26353e+00    5.65927e-01    5.65862e-01    5.65840e-01    5.65862e-01    1.42330e-01    1.40609e-01    1.42330e-01    1.40609e-01    2.86672e+00    9.67701e-01    7.16681e-01    5.31144e-01    7.16681e-01    2.41925e-01    1.32786e-01    1.32786e-01    2.41925e-01
    2.10000e+01    0.00000e+00    0.00000e+00    0.00000e+00    5.09224e+00    2.26326e+00    5.65855e-01    5.65775e-01    5.65778e-01    5.65775e-01    1.42307e-01    1.40588e-01    1.42307e-01    1.40588e-01    2.86672e+00    9.67701e-01    7.16681e-01    5.31144e-01    7.16681e-01    2.41925e-01    1.32786e-01    1.32786e-01    2.41925e-01
    2.20000e+01    0.00000e+00    0.00000e+00    0.00000e+00    5.09166e+00    2.26303e+00    5.65791e-01    5.65700e-01    5.65726e-01    5.65700e-01    1.42277e-01    1.40578e-01    1.42277e-01    1.40578e-01    2.86672e+00    9.67701e-01    7.16681e-01    5.31144e-01    7.16681e-01    2.41925e-01    1.32786e-01    1.32786e-01    2.41925e-01
    2.30000e+01    0.00000e+00    0.00000e+00    0.00000e+00    5.09120e+00    2.26285e+00    5.65738e-01    5.65638e-01    5.65688e-01    5.65638e-01    1.42242e-01    1.40580e-01    1.42242e-01    1.40580e-01    2.86672e+00    9.67701e-01    7.16681e-01    5.31144e-01    7.16681e-01    2.41925e-01    1.32786e-01    1.32786e-01    2.41925e-01
    2.40000e+01    0.00000e+00    0.00000e+00    0.00000e+00    5.09085e+00    2.26272e+00    5.65698e-01    5.65590e-01    5.65663e-01    5.65590e-01    1.42203e-01    1.40593e-01    1.42203e-01    1.40593e-01    2.86672e+00    9.67701e-01    7.16681e-01    5.31144e-01    7.16681e-01    2.41925e-01    1.32786e-01    1.32786e-01    2.41925e-01
    2.50000e+01    0.00000e+00    0.00000e+00    0.00000e+00    5.09064e+00    2.26265e+00    5.65671e-01    5.65559e-01    5.65653e-01    5.65559e-01    1.42159e-01    1.40619e-01    1.42159e-01    1.40619e-01    2.86672e+00    9.67701e-01    7.16681e-01    5.31144e-01    7.16681e-01    2.41925e-01    1.32786e-01    1.32786e-01    2.41925e-01
    2.60000e+01    0.00000e+00    0.00000e+00    0.00000e+00    5.09057e+00    2.26263e+00    5.65659e-01    5.65543e-01    5.65658e-01    5.65543e-01    1.42111e-01    1.40656e-01    1.42111e-01    1.40656e-01    2.86672e+00    9.67701e-01    7.16681e-01    5.31144e-01    7.16681e-01    2.41925e-01    1.32786e-01    1.32786e-01    2.41925e-01
    2.70000e+01    0.00000e+00    0.00000e+00    0.00000e+00    5.09063e+00    2.26267e+00    5.65661e-01    5.65543e-01    5.65678e-01    5.65543e-01    1.42059e-01    1.40705e-01    1.42059e-01    1.40705e-01    2.86672e+00    9.67701e-01    7.16681e-01    5.31144e-01    7.16681e-01    2.41925e-01    1.32786e-01    1.32786e-01    2.41925e-01
    2.80000e+01    0.00000e+00    0.00000e+00    0.00000e+00    5.09082e+00    2.26277e+00    5.65678e-01    5.65559e-01    5.65710e-01    5.65559e-01    1.42006e-01    1.40763e-01    1.42006e-01    1.40763e-01    2.86672e+00    9.67701e-01    7.16681e-01    5.31144e-01    7.16681e-01    2.41925e-01    1.32786e-01    1.32786e-01    2.41925e-01
    2.90000e+01    0.00000e+00    0.00000e+00    0.00000e+00    5.09112e+00    2.26292e+00    5.65709e-01    5.65588e-01    5.65754e-01    5.65588e-01    1.41950e-01    1.40829e-01    1.41950e-01    1.40829e-01    2.86672e+00    9.67701e-01    7.16681e-01    5.31144e-01    7.16681e-01    2.41925e-01    1.32786e-01    1.32786e-01    2.41925e-01
    3.00000e+01    0.00000e+00    0.00000e+00    0.00000e+00    5.09152e+00    2.26311e+00    5.65751e-01    5.65628e-01    5.65806e-01    5.65628e-01    1.41894e-01    1.40903e-01    1.41894e-01    1.40903e-01    2.86672e+00    9.67701e-01    7.16681e-01    5.31144e-01    7.16681e-01    2.41925e-01    1.32786e-01    1.32786e-01    2.41925e-01
    3.10000e+01    0.00000e+00    0.00000e+00    0.00000e+00    5.09199e+00    2.26333e+00    5.65802e-01    5.65676e-01    5.65866e-01    5.65676e-01    1.41838e-01    1.40980e-01    1.41838e-01    1.40980e-01    2.86672e+00    9.67701e-01    7.16681e-01    5.31144e-01    7.16681e-01    2.41925e-01    1.32786e-01    1.32786e-01    2.41925e-01
    3.20000e+01    0.00000e+00    0.00000e+00    0.00000e+00    5.09251e+00    2.26357e+00    5.65860e-01    5.65730e-01    5.65928e-01    5.65730e-01    1.41783e-01    1.41060e-01    1.41783e-01    1.41060e-01    2.86672e+00    9.67701e-01    7.16681e-01    5.31144e-01    7.16681e-01    2.41925e-01    1.32786e-01    1.32786e-01    2.41925e-01
    3.30000e+01    0.00000e+00    0.00000e+00    0.00000e+00    5.09305e+00    2.26382e+00    5.65922e-01    5.65786e-01    5.65990e-01    5.65786e-01    1.41730e-01    1.41139e-01    1.41730e-01    1.41139e-01    2.86672e+00    9.67701e-01    7.16681e-01    5.31144e-01    7.16681e-01    2.41925e-01    1.32786e-01    1.32786e-01    2.41925e-01
    3.40000e+01    0.00000e+00    0.00000e+00    0.00000e+00    5.09359e+00    2.26407e+00    5.65984e-01    5.65842e-01    5.66054e-01    5.65842e-01    1.41683e-01    1.41214e-01    1.41683e-01    1.41214e-01    2.86672e+00    9.67701e-01    7.16681e-01    5.31144e-01    7.16681e-01    2.41925e-01    1.32786e-01    1.32786e-01    2.41925e-01
    3.50000e+01    0.00000e+00    0.00000e+00    0.00000e+00    5.09402e+00    2.26427e+00    5.66046e-01    5.65890e-01    5.66084e-01    5.65890e-01    1.41630e-01    1.41287e-01    1.41630e-01    1.41287e-01    2.86672e+00    9.67701e-01    7.16681e-01    5.31144e-01    7.16681e-01    2.41925e-01    1.32786e-01    1.32786e-01    2.41925e-01
    3.60000e+01    0.00000e+00    0.00000e+00    0.00000e+00    5.09462e+00    2.26454e+00    5.66087e-01    5.65920e-01    5.66208e-01    5.65920e-01    1.41625e-01    1.41345e-01    1.41625e-01    1.41345e-01    2.86672e+00    9.67701e-01    7.16681e-01    5.31144e-01    7.16681e-01    2.41925e-01    1.32786e-01    1.32786e-01    2.41925e-01
    3.70000e+01    0.00000e+00    0.00000e+00    0.00000e+00    5.09475e+00    2.26461e+00    5.66172e-01    5.65981e-01    5.66072e-01    5.65981e-01    1.41568e-01    1.41397e-01    1.41568e-01    1.41397e-01    2.86672e+00    9.67701e-01    7.16681e-01    5.31144e-01    7.16681e-01    2.41925e-01    1.32786e-01    1.32786e-01    2.41925e-01
    3.80000e+01    0.00000e+00    0.00000e+00    0.00000e+00    5.09522e+00    2.26482e+00    5.66140e-01    5.65956e-01    5.66388e-01    5.65956e-01    1.41552e-01    1.41425e-01    1.41552e-01    1.41425e-01    2.86672e+00    9.67701e-01    7.16681e-01    5.31144e-01    7.16681e-01    2.41925e-01    1.32786e-01    1.32786e-01    2.41925e-01
    3.90000e+01    0.00000e+00    0.00000e+00    0.00000e+00    5.09639e+00    2.26533e+00    5.66254e-01    5.66253e-01    5.66254e-01    5.66253e-01    1.41583e-01    1.41441e-01    1.41583e-01    1.41441e-01    2.86672e+00    9.67701e-01    7.16681e-01    5.31144e-01    7.16681e-01    2.41925e-01    1.32786e-01    1.32786e-01    2.41925e-01
    0.00000e+00    1.00000e+00    0.00000e+00    0.00000e+00    5.09953e+00    2.26609e+00    5.66843e-01    5.66287e-01    5.66843e-01    5.66601e-01    1.41804e-01    1.41628e-01    1.41804e-01    1.41628e-01    2.86672e+00    9.67701e-01    7.16681e-01    5.31144e-01    7.16681e-01    2.41925e-01    1.32786e-01    1.32786e-01    2.41925e-01
    1.00000e+00    1.00000e+00   -2.63622e-04   -2.47803e-04    5.09957e+00    2.26611e+00    5.66281e-01    5.66269e-01    5.67135e-01    5.67060e-01    1.41443e-01    1.41677e-01    1.41924e-01    1.41669e-01    2.86672e+00    9.67701e-01    7.16681e-01    5.31144e-01    7.16681e-01    2.41925e-01    1.32786e-01    1.32786e-01    2.41925e-01
    2.00000e+00    1.00000e+00   -4.00646e-04   -1.97380e-04    5.09977e+00    2.26621e+00    5.65939e-01    5.66393e-01    5.67342e-01    5.67020e-01    1.41510e-01    1.41734e-01    1.42020e-01    1.41604e-01    2.86672e+00    9.67701e-01    7.16681e-01    5.31144e-01    7.16681e-01    2.41925e-01    1.32786e-01    1.32786e-01    2.41925e-01
    3.00000e+00    1.00000e+00   -5.47922e-04   -1.93995e-04    5.09997e+00    2.26630e+00    5.65827e-01    5.66317e-01    5.67709e-01    5.66964e-01    1.41495e-01    1.41758e-01    1.42123e-01    1.41473e-01    2.86672e+00    9.67701e-01    7.16681e-01    5.31144e-01    7.16681e-01    2.41925e-01    1.32786e-01    1.32786e-01    2.41925e-01
    4.00000e+00    1.00000e+00   -7.51025e-04   -1.57801e-04    5.10013e+00    2.26639e+00    5.65509e-01    5.66413e-01    5.68078e-01    5.66910e-01    1.41453e-01    1.41812e-01    1.42237e-01    1.41336e-01    2.86672e+00    9.67701e-01    7.16681e-01    5.31144e-01    7.16681e-01    2.41925e-01    1.32786e-01    1.32786e-01    2.41925e-01
    5.00000e+00    1.00000e+00   -9.66689e-04   -1.38490e-04    5.10023e+00    2.26644e+00    5.65175e-01    5.66415e-01    5.68484e-01    5.66855e-01    1.41430e-01    1.41867e-01    1.42374e-01    1.41189e-01    2.86672e+00    9.67701e-01    7.16681e-01    5.31144e-01    7.16681e-01    2.41925e-01    1.32786e-01    1.32786e-01    2.41925e-01
    6.00000e+00    1.00000e+00   -1.19185e-03   -1.28091e-04    5.10031e+00    2.26649e+00    5.64802e-01    5.66445e-01    5.68877e-01    5.66846e-01    1.41380e-01    1.41918e-01    1.42508e-01    1.41043e-01    2.86672e+00    9.67701e-01    7.16681e-01    5.31144e-01    7.16681e-01    2.41925e-01    1.32786e-01    1.32786e-01    2.41925e-01
    7.00000e+00    1.00000e+00   -1.41456e-03   -1.16247e-04    5.10032e+00    2.26651e+00    5.64426e-01    5.66453e-01    5.69264e-01    5.66812e-01    1.41341e-01    1.41970e-01    1.42646e-01    1.40898e-01    2.86672e+00    9.67701e-01    7.16681e-01    5.31144e-01    7.16681e-01    2.41925e-01    1.32786e-01    1.32786e-01    2.41925e-01
    8.00000e+00    1.00000e+00   -1.63526e-03   -1.03246e-04    5.10024e+00    2.26649e+00    5.64045e-01    5.66462e-01    5.69634e-01    5.66776e-01    1.41297e-01    1.42013e-01    1.42779e-01    1.40744e-01    2.86672e+00    9.67701e-01    7.16681e-01    5.31144e-01    7.16681e-01    2.41925e-01    1.32786e-01    1.32786e-01    2.41925e-01
    9.00000e+00    1.00000e+00   -1.85082e-03   -9.20494e-05    5.10006e+00    2.26643e+00    5.63656e-01    5.66457e-01    5.69981e-01    5.66732e-01    1.41252e-01    1.42054e-01    1.42907e-01    1.40594e-01    2.86672e+00    9.67701e-01    7.16681e-01    5.31144e-01    7.16681e-01    2.41925e-01    1.32786e-01    1.32786e-01    2.41925e-01
    1.00000e+01    1.00000e+00   -2.05794e-03   -8.01865e-05    5.09977e+00    2.26632e+00    5.63269e-01    5.66443e-01    5.70299e-01    5.66678e-01    1.41207e-01    1.42089e-01    1.43026e-01    1.40444e-01    2.86672e+00    9.67701e-01    7.16681e-01    5.31144e-01    7.16681e-01    2.41925e-01    1.32786e-01    1.32786e-01    2.41925e-01
    1.10000e+01    1.00000e+00   -2.25472e-03   -6.86535e-05    5.09937e+00    2.26616e+00    5.62885e-01    5.66417e-01    5.70587e-01    5.66612e-01    1.41161e-01    1.42119e-01    1.43136e-01    1.40298e-01    2.86672e+00    9.67701e-01    7.16681e-01    5.31144e-01    7.16681e-01    2.41925e-01    1.32786e-01    1.32786e-01    2.41925e-01
    1.20000e+01    1.00000e+00   -2.43995e-03   -5.69434e-05    5.09887e+00    2.26596e+00    5.62509e-01    5.66381e-01    5.70841e-01    5.66536e-01    1.41113e-01    1.42142e-01    1.43235e-01    1.40155e-01    2.86672e+00    9.67701e-01    7.16681e-01    5.31144e-01    7.16681e-01    2.41925e-01    1.32786e-01    1.32786e-01    2.41925e-01
    1.30000e+01    1.00000e+00   -2.61175e-03   -4.55251e-05    5.09827e+00    2.26571e+00    5.62144e-01    5.66334e-01    5.71061e-01    5.66452e-01    1.41065e-01    1.42162e-01    1.43322e-01    1.40020e-01    2.86672e+00    9.67701e-01    7.16681e-01    5.31144e-01    7.16681e-01    2.41925e-01    1.32786e-01    1.32786e-01    2.41925e-01
    1.40000e+01    1.00000e+00   -2.76801e-03   -3.39297e-05    5.09759e+00    2.26543e+00    5.61794e-01    5.66281e-01    5.71242e-01    5.66359e-01    1.41018e-01    1.42176e-01    1.43396e-01    1.39892e-01    2.86672e+00    9.67701e-01    7.16681e-01    5.31144e-01    7.16681e-01    2.41925e-01    1.32786e-01    1.32786e-01    2.41925e-01
    1.50000e+01    1.00000e+00   -2.90658e-03   -2.32321e-05    5.09684e+00    2.26512e+00    5.61465e-01    5.66220e-01    5.71385e-01    5.66264e-01    1.40972e-01    1.42185e-01    1.43456e-01    1.39775e-01    2.86672e+00    9.67701e-01    7.16681e-01    5.31144e-01    7.16681e-01    2.41925e-01    1.32786e-01    1.32786e-01    2.41925e-01
    1.60000e+01    1.00000e+00   -3.02515e-03   -1.30631e-05    5.09605e+00    2.26479e+00    5.61164e-01    5.66156e-01    5.71486e-01    5.66167e-01    1.40927e-01    1.42189e-01    1.43501e-01    1.39670e-01    2.86672e+00    9.67701e-01    7.16681e-01    5.31144e-01    7.16681e-01    2.41925e-01    1.32786e-01    1.32786e-01    2.41925e-01
    1.70000e+01    1.00000e+00   -3.12105e-03   -3.32712e-06    5.09524e+00    2.26446e+00    5.60896e-01    5.66090e-01    5.71543e-01    5.66070e-01    1.40886e-01    1.42189e-01    1.43531e-01    1.39580e-01    2.86672e+00    9.67701e-01    7.16681e-01    5.31144e-01    7.16681e-01    2.41925e-01    1.32786e-01    1.32786e-01    2.41925e-01
    1.80000e+01    1.00000e+00   -3.19170e-03    5.15504e-06    5.09444e+00    2.26413e+00    5.60669e-01    5.66024e-01    5.71556e-01    5.65979e-01    1.40848e-01    1.42183e-01    1.43544e-01    1.39506e-01    2.86672e+00    9.67701e-01    7.16681e-01    5.31144e-01    7.16681e-01    2.41925e-01    1.32786e-01    1.32786e-01    2.41925e-01
    1.90000e+01    1.00000e+00   -3.23479e-03    1.20468e-05    5.09365e+00    2.26380e+00    5.60489e-01    5.65961e-01    5.71521e-01    5.65897e-01    1.40816e-01    1.42173e-01    1.43540e-01    1.39452e-01    2.86672e+00    9.67701e-01    7.16681e-01    5.31144e-01    7.16681e-01    2.41925e-01    1.32786e-01    1.32786e-01    2.41925e-01
    2.00000e+01    1.00000e+00   -3.24809e-03    1.82706e-05    5.09292e+00    2.26350e+00    5.60363e-01    5.65903e-01    5.71439e-01    5.65822e-01    1.40791e-01    1.42159e-01    1.43518e-01    1.39420e-01    2.86672e+00    9.67701e-01    7.16681e-01    5.31144e-01    7.16681e-01    2.41925e-01    1.32786e-01    1.32786e-01    2.41925e-01
    2.10000e+01    1.00000e+00   -3.22993e-03    2.30741e-05    5.09225e+00    2.26324e+00    5.60296e-01    5.65852e-01    5.71310e-01    5.65759e-01    1.40773e-01    1.42139e-01    1.43478e-01    1.39410e-01    2.86672e+00    9.67701e-01    7.16681e-01    5.31144e-01    7.16681e-01    2.41925e-01    1.32786e-01    1.32786e-01    2.41925e-01
    2.20000e+01    1.00000e+00   -3.17931e-03    2.59769e-05    5.09168e+00    2.26301e+00    5.60293e-01    5.65810e-01    5.71134e-01    5.65713e-01    1.40763e-01    1.42115e-01    1.43419e-01    1.39424e-01    2.86672e+00    9.67701e-01    7.16681e-01    5.31144e-01    7.16681e-01    2.41925e-01    1.32786e-01    1.32786e-01    2.41925e-01
    2.30000e+01    1.00000e+00   -3.09579e-03    2.81465e-05    5.09121e+00    2.26282e+00    5.60358e-01    5.65778e-01    5.70913e-01    5.65679e-01    1.40763e-01    1.42088e-01    1.43344e-01    1.39463e-01    2.86672e+00    9.67701e-01    7.16681e-01    5.31144e-01    7.16681e-01    2.41925e-01    1.32786e-01    1.32786e-01    2.41925e-01
    2.40000e+01    1.00000e+00   -2.97976e-03    2.98127e-05    5.09086e+00    2.26270e+00    5.60491e-01    5.65758e-01    5.70651e-01    5.65659e-01    1.40773e-01    1.42057e-01    1.43251e-01    1.39526e-01    2.86672e+00    9.67701e-01    7.16681e-01    5.31144e-01    7.16681e-01    2.41925e-01    1.32786e-01    1.32786e-01    2.41925e-01
    2.50000e+01    1.00000e+00   -2.83267e-03    3.03308e-05    5.09065e+00    2.26262e+00    5.60692e-01    5.65751e-01    5.70351e-01    5.65656e-01    1.40792e-01    1.42023e-01    1.43143e-01    1.39613e-01    2.86672e+00    9.67701e-01    7.16681e-01    5.31144e-01    7.16681e-01    2.41925e-01    1.32786e-01    1.32786e-01    2.41925e-01
    2.60000e+01    1.00000e+00   -2.65674e-03    3.09275e-05    5.09056e+00    2.26261e+00    5.60960e-01    5.65757e-01    5.70020e-01    5.65666e-01    1.40822e-01    1.41987e-01    1.43021e-01    1.39721e-01    2.86672e+00    9.67701e-01    7.16681e-01    5.31144e-01    7.16681e-01    2.41925e-01    1.32786e-01    1.32786e-01    2.41925e-01
    2.70000e+01    1.00000e+00   -2.45521e-03    3.25197e-05    5.09061e+00    2.26265e+00    5.61288e-01    5.65777e-01    5.69663e-01    5.65685e-01    1.40862e-01    1.41949e-01    1.42887e-01    1.39850e-01    2.86672e+00    9.67701e-01    7.16681e-01    5.31144e-01    7.16681e-01    2.41925e-01    1.32786e-01    1.32786e-01    2.41925e-01
    2.80000e+01    1.00000e+00   -2.23229e-03    3.47988e-05    5.09079e+00    2.26275e+00    5.61671e-01    5.65808e-01    5.69287e-01    5.65714e-01    1.40910e-01    1.41910e-01    1.42743e-01    1.39995e-01    2.86672e+00    9.67701e-01    7.16681e-01    5.31144e-01    7.16681e-01    2.41925e-01    1.32786e-01    1.32786e-01    2.41925e-01
    2.90000e+01    1.00000e+00   -1.99309e-03    3.84311e-05    5.09108e+00    2.26290e+00    5.62100e-01    5.65851e-01    5.68902e-01    5.65748e-01    1.40966e-01    1.41871e-01    1.42592e-01    1.40152e-01    2.86672e+00    9.67701e-01    7.16681e-01    5.31144e-01    7.16681e-01    2.41925e-01    1.32786e-01    1.32786e-01    2.41925e-01
    3.00000e+01    1.00000e+00   -1.74329e-03    4.43279e-05    5.09147e+00    2.26309e+00    5.62562e-01    5.65904e-01    5.68514e-01    5.65783e-01    1.41029e-01    1.41832e-01    1.42438e-01    1.40318e-01    2.86672e+00    9.67701e-01    7.16681e-01    5.31144e-01    7.16681e-01    2.41925e-01    1.32786e-01    1.32786e-01    2.41925e-01
    3.10000e+01    1.00000e+00   -1.48921e-03    5.26833e-05    5.09192e+00    2.26330e+00    5.63046e-01    5.65963e-01    5.68133e-01    5.65816e-01    1.41096e-01    1.41795e-01    1.42284e-01    1.40486e-01    2.86672e+00    9.67701e-01    7.16681e-01    5.31144e-01    7.16681e-01    2.41925e-01    1.32786e-01    1.32786e-01    2.41925e-01
    3.20000e+01    1.00000e+00   -1.23800e-03    6.34374e-05    5.09243e+00    2.26354e+00    5.63538e-01    5.66027e-01    5.67769e-01    5.65843e-01    1.41166e-01    1.41759e-01    1.42133e-01    1.40653e-01    2.86672e+00    9.67701e-01    7.16681e-01    5.31144e-01    7.16681e-01    2.41925e-01    1.32786e-01    1.32786e-01    2.41925e-01
    3.30000e+01    1.00000e+00   -9.96769e-04    7.75238e-05    5.09296e+00    2.26379e+00    5.64021e-01    5.66092e-01    5.67430e-01    5.65859e-01    1.41237e-01    1.41727e-01    1.41990e-01    1.40812e-01    2.86672e+00    9.67701e-01    7.16681e-01    5.31144e-01    7.16681e-01    2.41925e-01    1.32786e-01    1.32786e-01    2.41925e-01
    3.40000e+01    1.00000e+00   -7.70489e-04    9.08639e-05    5.09348e+00    2.26403e+00    5.64482e-01    5.66157e-01    5.67120e-01    5.65875e-01    1.41307e-01    1.41691e-01    1.41859e-01    1.40957e-01    2.86672e+00    9.67701e-01    7.16681e-01    5.31144e-01    7.16681e-01    2.41925e-01    1.32786e-01    1.32786e-01    2.41925e-01
    3.50000e+01    1.00000e+00   -5.67536e-04    1.11810e-04    5.09395e+00    2.26424e+00    5.64911e-01    5.66207e-01    5.66855e-01    5.65859e-01    1.41371e-01    1.41675e-01    1.41734e-01    1.41091e-01    2.86672e+00    9.67701e-01    7.16681e-01    5.31144e-01    7.16681e-01    2.41925e-01    1.32786e-01    1.32786e-01    2.41925e-01
    3.60000e+01    1.00000e+00   -3.88619e-04    1.39294e-04    5.09439e+00    2.26445e+00    5.65283e-01    5.66299e-01    5.66620e-01    5.65835e-01    1.41434e-01    1.41642e-01    1.41633e-01    1.41197e-01    2.86672e+00    9.67701e-01    7.16681e-01    5.31144e-01    7.16681e-01    2.41925e-01    1.32786e-01    1.32786e-01    2.41925e-01
    3.70000e+01    1.00000e+00   -2.69582e-04    1.60872e-04    5.09478e+00    2.26463e+00    5.65616e-01    5.66284e-01    5.66568e-01    5.65771e-01    1.41469e-01    1.41644e-01    1.41526e-01    1.41280e-01    2.86672e+00    9.67701e-01    7.16681e-01    5.31144e-01    7.16681e-01    2.41925e-01    1.32786e-01    1.32786e-01    2.41925e-01
    3.80000e+01    1.00000e+00   -1.81227e-04    2.00094e-04    5.09512e+00    2.26477e+00    5.65794e-01    5.66391e-01    5.66375e-01    5.65746e-01    1.41518e-01    1.41686e-01    1.41502e-01    1.41328e-01    2.86672e+00    9.67701e-01    7.16681e-01    5.31144e-01    7.16681e-01    2.41925e-01    1.32786e-01    1.32786e-01    2.41925e-01
    3.90000e+01    1.00000e+00    0.00000e+00    0.00000e+00    5.09523e+00    2.26483e+00    5.65976e-01    5.66389e-01    5.65976e-01    5.66146e-01    1.41551e-01    1.41406e-01    1.41551e-01    1.41406e-01    2.86672e+00    9.67701e-01    7.16681e-01    5.31144e-01    7.16681e-01    2.41925e-01    1.32786e-01    1.32786e-01    2.41925e-01
    0.00000e+00    2.00000e+00    0.00000e+00    0.00000e+00    5.09998e+00    2.26630e+00    5.66793e-01    5.66704e-01    5.66793e-01    5.66536e-01    1.41818e-01    1.41610e-01    1.41818e-01    1.41610e-01    2.86672e+00    9.67701e-01    7.16681e-01    5.31144e-01    7.16681e-01    2.41925e-01    1.32786e-01    1.32786e-01    2.41925e-01
    1.00000e+00    2.00000e+00   -2.67669e-04   -2.88869e-04    5.09984e+00    2.26624e+00    5.66406e-01    5.65999e-01    5.67292e-01    5.67019e-01    1.41498e-01    1.41717e-01    1.41964e-01    1.41704e-01    2.86672e+00    9.67701e-01    7.16681e-01    5.31144e-01    7.16681e-01    2.41925e-01    1.32786e-01    1.32786e-01    2.41925e-01
    2.00000e+00    2.00000e+00   -5.53372e-04   -2.67986e-04    5.09999e+00    2.26631e+00    5.65882e-01    5.66095e-01    5.67791e-01    5.67027e-01    1.41399e-01    1.41824e-01    1.42073e-01    1.41585e-01    2.86672e+00    9.67701e-01    7.16681e-01    5.31144e-01    7.16681e-01    2.41925e-01    1.32786e-01    1.32786e-01    2.41925e-01
    3.00000e+00    2.00000e+00   -8.51241e-04   -1.98698e-04    5.10016e+00    2.26639e+00    5.65459e-01    5.66205e-01    5.68355e-01    5.66880e-01    1.41293e-01    1.41972e-01    1.42184e-01    1.41418e-01    2.86672e+00    9.67701e-01    7.16681e-01    5.31144e-01    7.16681e-01    2.41925e-01    1.32786e-01    1.32786e-01    2.41925e-01
    4.00000e+00    2.00000e+00   -1.19150e-03   -1.37889e-04    5.10023e+00    2.26643e+00    5.64924e-01    5.66274e-01    5.68982e-01    5.66741e-01    1.41205e-01    1.42115e-01    1.42332e-01    1.41224e-01    2.86672e+00    9.67701e-01    7.16681e-01    5.31144e-01    7.16681e-01    2.41925e-01    1.32786e-01    1.32786e-01    2.41925e-01
    5.00000e+00    2.00000e+00   -1.55202e-03   -8.65094e-05    5.10036e+00    2.26650e+00    5.64329e-01    5.66352e-01    5.69625e-01    5.66653e-01    1.41118e-01    1.42261e-01    1.42498e-01    1.41021e-01    2.86672e+00    9.67701e-01    7.16681e-01    5.31144e-01    7.16681e-01    2.41925e-01    1.32786e-01    1.32786e-01    2.41925e-01