TITLE="LBM output"
VARIABLES = "X", "Y", "U","V","density","f0","f1","f2","f3","f4","f5","f6","f7","f8","feq0","feq1","feq2","feq3","feq4","feq5","feq6","feq7","feq8",
ZONE T = "fluid", I=40, J=40, F=POINT
SOLUTIONTIME=364
    0.00000e+00    0.00000e+00    0.00000e+00    0.00000e+00    5.06397e+00    2.25048e+00    5.62660e-01    5.62659e-01    5.62660e-01    5.62659e-01    1.40768e-01    1.40655e-01    1.40768e-01    1.40655e-01    2.83357e+00    9.56510e-01    7.08392e-01    5.25001e-01    7.08392e-01    2.39127e-01    1.31250e-01    1.31250e-01    2.39127e-01
    1.00000e+00    0.00000e+00    0.00000e+00    0.00000e+00    5.06420e+00    2.25069e+00    5.62565e-01    5.62823e-01    5.62667e-01    5.62823e-01    1.40644e-01    1.40670e-01    1.40644e-01    1.40670e-01    2.83357e+00    9.56510e-01    7.08392e-01    5.25001e-01    7.08392e-01    2.39127e-01    1.31250e-01    1.31250e-01    2.39127e-01
    2.00000e+00    0.00000e+00    0.00000e+00    0.00000e+00    5.06271e+00    2.25004e+00    5.62815e-01    5.62508e-01    5.62331e-01    5.62508e-01    1.40619e-01    1.40635e-01    1.40619e-01    1.40635e-01    2.83357e+00    9.56510e-01    7.08392e-01    5.25001e-01    7.08392e-01    2.39127e-01    1.31250e-01    1.31250e-01    2.39127e-01
    3.00000e+00    0.00000e+00    0.00000e+00    0.00000e+00    5.06101e+00    2.24923e+00    5.62228e-01    5.62526e-01    5.62273e-01    5.62526e-01    1.40565e-01    1.40545e-01    1.40565e-01    1.40545e-01    2.83357e+00    9.56510e-01    7.08392e-01    5.25001e-01    7.08392e-01    2.39127e-01    1.31250e-01    1.31250e-01    2.39127e-01
    4.00000e+00    0.00000e+00    0.00000e+00    0.00000e+00    5.05934e+00    2.24850e+00    5.62385e-01    5.62175e-01    5.61941e-01    5.62175e-01    1.40517e-01    1.40562e-01    1.40517e-01    1.40562e-01    2.83357e+00    9.56510e-01    7.08392e-01    5.25001e-01    7.08392e-01    2.39127e-01    1.31250e-01    1.31250e-01    2.39127e-01
    5.00000e+00    0.00000e+00    0.00000e+00    0.00000e+00    5.05680e+00    2.24736e+00    5.61918e-01    5.61931e-01    5.61711e-01    5.61931e-01    1.40517e-01    1.40459e-01    1.40517e-01    1.40459e-01    2.83357e+00    9.56510e-01    7.08392e-01    5.25001e-01    7.08392e-01    2.39127e-01    1.31250e-01    1.31250e-01    2.39127e-01
    6.00000e+00    0.00000e+00    0.00000e+00    0.00000e+00    5.05451e+00    2.24635e+00    5.61777e-01    5.61634e-01    5.61424e-01    5.61634e-01    1.40497e-01    1.40350e-01    1.40497e-01    1.40350e-01    2.83357e+00    9.56510e-01    7.08392e-01    5.25001e-01    7.08392e-01    2.39127e-01    1.31250e-01    1.31250e-01    2.39127e-01
    7.00000e+00    0.00000e+00    0.00000e+00    0.00000e+00    5.05196e+00    2.24523e+00    5.61445e-01    5.61354e-01    5.61155e-01    5.61354e-01    1.40480e-01    1.40229e-01    1.40480e-01    1.40229e-01    2.83357e+00    9.56510e-01    7.08392e-01    5.25001e-01    7.08392e-01    2.39127e-01    1.31250e-01    1.31250e-01    2.39127e-01
    8.00000e+00    0.00000e+00    0.00000e+00    0.00000e+00    5.04954e+00    2.24419e+00    5.61206e-01    5.61063e-01    5.60898e-01    5.61063e-01    1.40471e-01    1.40093e-01    1.40471e-01    1.40093e-01    2.83357e+00    9.56510e-01    7.08392e-01    5.25001e-01    7.08392e-01    2.39127e-01    1.31250e-01    1.31250e-01    2.39127e-01
    9.00000e+00    0.00000e+00    0.00000e+00    0.00000e+00    5.04728e+00    2.24321e+00    5.60930e-01    5.60795e-01    5.60674e-01    5.60795e-01    1.40460e-01    1.39977e-01    1.40460e-01    1.39977e-01    2.83357e+00    9.56510e-01    7.08392e-01    5.25001e-01    7.08392e-01    2.39127e-01    1.31250e-01    1.31250e-01    2.39127e-01
    1.00000e+01    0.00000e+00    0.00000e+00    0.00000e+00    5.04532e+00    2.24237e+00    5.60711e-01    5.60560e-01    5.60482e-01    5.60560e-01    1.40451e-01    1.39864e-01    1.40451e-01    1.39864e-01    2.83357e+00    9.56510e-01    7.08392e-01    5.25001e-01    7.08392e-01    2.39127e-01    1.31250e-01    1.31250e-01    2.39127e-01
    1.10000e+01    0.00000e+00    0.00000e+00    0.00000e+00    5.04369e+00    2.24168e+00    5.60508e-01    5.60369e-01    5.60332e-01    5.60369e-01    1.40446e-01    1.39771e-01    1.40446e-01    1.39771e-01    2.83357e+00    9.56510e-01    7.08392e-01    5.25001e-01    7.08392e-01    2.39127e-01    1.31250e-01    1.31250e-01    2.39127e-01
    1.20000e+01    0.00000e+00    0.00000e+00    0.00000e+00    5.04244e+00    2.24114e+00    5.60354e-01    5.60224e-01    5.60222e-01    5.60224e-01    1.40444e-01    1.39695e-01    1.40444e-01    1.39695e-01    2.83357e+00    9.56510e-01    7.08392e-01    5.25001e-01    7.08392e-01    2.39127e-01    1.31250e-01    1.31250e-01    2.39127e-01
    1.30000e+01    0.00000e+00    0.00000e+00    0.00000e+00    5.04157e+00    2.24076e+00    5.60234e-01    5.60128e-01    5.60149e-01    5.60128e-01    1.40447e-01    1.39640e-01    1.40447e-01    1.39640e-01    2.83357e+00    9.56510e-01    7.08392e-01    5.25001e-01    7.08392e-01    2.39127e-01    1.31250e-01    1.31250e-01    2.39127e-01
    1.40000e+01    0.00000e+00    0.00000e+00    0.00000e+00    5.04106e+00    2.24052e+00    5.60155e-01    5.60076e-01    5.60111e-01    5.60076e-01    1.40457e-01    1.39600e-01    1.40457e-01    1.39600e-01    2.83357e+00    9.56510e-01    7.08392e-01    5.25001e-01    7.08392e-01    2.39127e-01    1.31250e-01    1.31250e-01    2.39127e-01
    1.50000e+01    0.00000e+00    0.00000e+00    0.00000e+00    5.04084e+00    2.24041e+00    5.60110e-01    5.60061e-01    5.60099e-01    5.60061e-01    1.40473e-01    1.39576e-01    1.40473e-01    1.39576e-01    2.83357e+00    9.56510e-01    7.08392e-01    5.25001e-01    7.08392e-01    2.39127e-01    1.31250e-01    1.31250e-01    2.39127e-01
    1.60000e+01    0.00000e+00    0.00000e+00    0.00000e+00    5.04087e+00    2.24040e+00    5.60094e-01    5.60077e-01    5.60109e-01    5.60077e-01    1.40492e-01    1.39562e-01    1.40492e-01    1.39562e-01    2.83357e+00    9.56510e-01    7.08392e-01    5.25001e-01    7.08392e-01    2.39127e-01    1.31250e-01    1.31250e-01    2.39127e-01
    1.70000e+01    0.00000e+00    0.00000e+00    0.00000e+00    5.04108e+00    2.24047e+00    5.60101e-01    5.60116e-01    5.60135e-01    5.60116e-01    1.40517e-01    1.39556e-01    1.40517e-01    1.39556e-01    2.83357e+00    9.56510e-01    7.08392e-01    5.25001e-01    7.08392e-01    2.39127e-01    1.31250e-01    1.31250e-01    2.39127e-01
    1.80000e+01    0.00000e+00    0.00000e+00    0.00000e+00    5.04142e+00    2.24059e+00    5.60124e-01    5.60168e-01    5.60170e-01    5.60168e-01    1.40545e-01    1.39554e-01    1.40545e-01    1.39554e-01    2.83357e+00    9.56510e-01    7.08392e-01    5.25001e-01    7.08392e-01    2.39127e-01    1.31250e-01    1.31250e-01    2.39127e-01
    1.90000e+01    0.00000e+00    0.00000e+00    0.00000e+00    5.04183e+00    2.24074e+00    5.60159e-01    5.60229e-01    5.60212e-01    5.60229e-01    1.40574e-01    1.39556e-01    1.40574e-01    1.39556e-01    2.83357e+00    9.56510e-01    7.08392e-01    5.25001e-01    7.08392e-01    2.39127e-01    1.31250e-01    1.31250e-01    2.39127e-01
    2.00000e+01    0.00000e+00    0.00000e+00    0.00000e+00    5.04229e+00    2.24092e+00    5.60200e-01    5.60294e-01    5.60258e-01    5.60294e-01    1.40604e-01    1.39558e-01    1.40604e-01    1.39558e-01    2.83357e+00    9.56510e-01    7.08392e-01    5.25001e-01    7.08392e-01    2.39127e-01    1.31250e-01    1.31250e-01    2.39127e-01
    2.10000e+01    0.00000e+00    0.00000e+00    0.00000e+00    5.04277e+00    2.24111e+00    5.60247e-01    5.60360e-01    5.60307e-01    5.60360e-01    1.40634e-01    1.39561e-01    1.40634e-01    1.39561e-01    2.83357e+00    9.56510e-01    7.08392e-01    5.25001e-01    7.08392e-01    2.39127e-01    1.31250e-01    1.31250e-01    2.39127e-01
    2.20000e+01    0.00000e+00    0.00000e+00    0.00000e+00    5.04328e+00    2.24131e+00    5.60297e-01    5.60426e-01    5.60359e-01    5.60426e-01    1.40662e-01    1.39565e-01    1.40662e-01    1.39565e-01    2.83357e+00    9.56510e-01    7.08392e-01    5.25001e-01    7.08392e-01    2.39127e-01    1.31250e-01    1.31250e-01    2.39127e-01
    2.30000e+01    0.00000e+00    0.00000e+00    0.00000e+00    5.04380e+00    2.24153e+00    5.60350e-01    5.60492e-01    5.60415e-01    5.60492e-01    1.40687e-01    1.39572e-01    1.40687e-01    1.39572e-01    2.83357e+00    9.56510e-01    7.08392e-01    5.25001e-01    7.08392e-01    2.39127e-01    1.31250e-01    1.31250e-01    2.39127e-01
    2.40000e+01    0.00000e+00    0.00000e+00    0.00000e+00    5.04433e+00    2.24176e+00    5.60406e-01    5.60556e-01    5.60472e-01    5.60556e-01    1.40709e-01    1.39580e-01    1.40709e-01    1.39580e-01    2.83357e+00    9.56510e-01    7.08392e-01    5.25001e-01    7.08392e-01    2.39127e-01    1.31250e-01    1.31250e-01    2.39127e-01
    2.50000e+01    0.00000e+00    0.00000e+00    0.00000e+00    5.04486e+00    2.24199e+00    5.60465e-01    5.60619e-01    5.60531e-01    5.60619e-01    1.40726e-01    1.39592e-01    1.40726e-01    1.39592e-01    2.83357e+00    9.56510e-01    7.08392e-01    5.25001e-01    7.08392e-01    2.39127e-01    1.31250e-01    1.31250e-01    2.39127e-01
    2.60000e+01    0.00000e+00    0.00000e+00    0.00000e+00    5.04538e+00    2.24223e+00    5.60525e-01    5.60676e-01    5.60587e-01    5.60676e-01    1.40736e-01    1.39607e-01    1.40736e-01    1.39607e-01    2.83357e+00    9.56510e-01    7.08392e-01    5.25001e-01    7.08392e-01    2.39127e-01    1.31250e-01    1.31250e-01    2.39127e-01
    2.70000e+01    0.00000e+00    0.00000e+00    0.00000e+00    5.04585e+00    2.24245e+00    5.60583e-01    5.60725e-01    5.60640e-01    5.60725e-01    1.40738e-01    1.39626e-01    1.40738e-01    1.39626e-01    2.83357e+00    9.56510e-01    7.08392e-01    5.25001e-01    7.08392e-01    2.39127e-01    1.31250e-01    1.31250e-01    2.39127e-01
    2.80000e+01    0.00000e+00    0.00000e+00    0.00000e+00    5.04623e+00    2.24264e+00    5.60637e-01    5.60761e-01    5.60678e-01    5.60761e-01    1.40730e-01    1.39648e-01    1.40730e-01    1.39648e-01    2.83357e+00    9.56510e-01    7.08392e-01    5.25001e-01    7.08392e-01    2.39127e-01    1.31250e-01    1.31250e-01    2.39127e-01
    2.90000e+01    0.00000e+00    0.00000e+00    0.00000e+00    5.04650e+00    2.24278e+00    5.60681e-01    5.60780e-01    5.60711e-01    5.60780e-01    1.40710e-01    1.39673e-01    1.40710e-01    1.39673e-01    2.83357e+00    9.56510e-01    7.08392e-01    5.25001e-01    7.08392e-01    2.39127e-01    1.31250e-01    1.31250e-01    2.39127e-01
    3.00000e+01    0.00000e+00    0.00000e+00    0.00000e+00    5.04661e+00    2.24287e+00    5.60714e-01    5.60781e-01    5.60716e-01    5.60781e-01    1.40676e-01    1.39702e-01    1.40676e-01    1.39702e-01    2.83357e+00    9.56510e-01    7.08392e-01    5.25001e-01    7.08392e-01    2.39127e-01    1.31250e-01    1.31250e-01    2.39127e-01
    3.10000e+01    0.00000e+00    0.00000e+00    0.00000e+00    5.04660e+00    2.24290e+00    5.60727e-01    5.60761e-01    5.60725e-01    5.60761e-01    1.40630e-01    1.39732e-01    1.40630e-01    1.39732e-01    2.83357e+00    9.56510e-01    7.08392e-01    5.25001e-01    7.08392e-01    2.39127e-01    1.31250e-01    1.31250e-01    2.39127e-01
    3.20000e+01    0.00000e+00    0.00000e+00    0.00000e+00    5.04639e+00    2.24285e+00    5.60731e-01    5.60724e-01    5.60685e-01    5.60724e-01    1.40572e-01    1.39766e-01    1.40572e-01    1.39766e-01    2.83357e+00    9.56510e-01    7.08392e-01    5.25001e-01    7.08392e-01    2.39127e-01    1.31250e-01    1.31250e-01    2.39127e-01
    3.30000e+01    0.00000e+00    0.00000e+00    0.00000e+00    5.04610e+00    2.24277e+00    5.60706e-01    5.60659e-01    5.60684e-01    5.60659e-01    1.40509e-01    1.39802e-01    1.40509e-01    1.39802e-01    2.83357e+00    9.56510e-01    7.08392e-01    5.25001e-01    7.08392e-01    2.39127e-01    1.31250e-01    1.31250e-01    2.39127e-01
    3.40000e+01    0.00000e+00    0.00000e+00    0.00000e+00    5.04569e+00    2.24263e+00    5.60690e-01    5.60604e-01    5.60617e-01    5.60604e-01    1.40432e-01    1.39843e-01    1.40432e-01    1.39843e-01    2.83357e+00    9.56510e-01    7.08392e-01    5.25001e-01    7.08392e-01    2.39127e-01    1.31250e-01    1.31250e-01    2.39127e-01
    3.50000e+01    0.00000e+00    0.00000e+00    0.00000e+00    5.04504e+00    2.24239e+00    5.60641e-01    5.60514e-01    5.60547e-01    5.60514e-01    1.40335e-01    1.39881e-01    1.40335e-01    1.39881e-01    2.83357e+00    9.56510e-01    7.08392e-01    5.25001e-01    7.08392e-01    2.39127e-01    1.31250e-01    1.31250e-01    2.39127e-01
    3.60000e+01    0.00000e+00    0.00000e+00    0.00000e+00    5.04498e+00    2.24241e+00    5.60579e-01    5.60421e-01    5.60677e-01    5.60421e-01    1.40319e-01    1.39915e-01    1.40319e-01    1.39915e-01    2.83357e+00    9.56510e-01    7.08392e-01    5.25001e-01    7.08392e-01    2.39127e-01    1.31250e-01    1.31250e-01    2.39127e-01
    3.70000e+01    0.00000e+00    0.00000e+00    0.00000e+00    5.04401e+00    2.24201e+00    5.60627e-01    5.60394e-01    5.60263e-01    5.60394e-01    1.40202e-01    1.39959e-01    1.40202e-01    1.39959e-01    2.83357e+00    9.56510e-01    7.08392e-01    5.25001e-01    7.08392e-01    2.39127e-01    1.31250e-01    1.31250e-01    2.39127e-01
    3.80000e+01    0.00000e+00    0.00000e+00    0.00000e+00    5.04376e+00    2.24197e+00    5.60418e-01    5.60205e-01    5.60755e-01    5.60205e-01    1.40127e-01    1.39977e-01    1.40127e-01    1.39977e-01    2.83357e+00    9.56510e-01    7.08392e-01    5.25001e-01    7.08392e-01    2.39127e-01    1.31250e-01    1.31250e-01    2.39127e-01
    3.90000e+01    0.00000e+00    0.00000e+00    0.00000e+00    5.04516e+00    2.24266e+00    5.60562e-01    5.60555e-01    5.60562e-01    5.60555e-01    1.40166e-01    1.39968e-01    1.40166e-01    1.39968e-01    2.83357e+00    9.56510e-01    7.08392e-01    5.25001e-01    7.08392e-01    2.39127e-01    1.31250e-01    1.31250e-01    2.39127e-01
    0.00000e+00    1.00000e+00    0.00000e+00    0.00000e+00    5.06418e+00    2.25069e+00    5.62822e-01    5.62567e-01    5.62822e-01    5.62664e-01    1.40645e-01    1.40666e-01    1.40645e-01    1.40666e-01    2.83357e+00    9.56510e-01    7.08392e-01    5.25001e-01    7.08392e-01    2.39127e-01    1.31250e-01    1.31250e-01    2.39127e-01
    1.00000e+00    1.00000e+00   -1.28165e-04   -8.34725e-05    5.06339e+00    2.25032e+00    5.62485e-01    5.62484e-01    5.62879e-01    5.62711e-01    1.40523e-01    1.40632e-01    1.40748e-01    1.40602e-01    2.83357e+00    9.56510e-01    7.08392e-01    5.25001e-01    7.08392e-01    2.39127e-01    1.31250e-01    1.31250e-01    2.39127e-01
    2.00000e+00    1.00000e+00   -1.50135e-04   -2.77297e-05    5.06218e+00    2.24978e+00    5.62124e-01    5.62467e-01    5.62644e-01    5.62548e-01    1.40650e-01    1.40627e-01    1.40799e-01    1.40537e-01    2.83357e+00    9.56510e-01    7.08392e-01    5.25001e-01    7.08392e-01    2.39127e-01    1.31250e-01    1.31250e-01    2.39127e-01
    3.00000e+00    1.00000e+00   -1.79029e-04   -7.28117e-05    5.06070e+00    2.24911e+00    5.62098e-01    5.62083e-01    5.62698e-01    5.62323e-01    1.40594e-01    1.40531e-01    1.40811e-01    1.40443e-01    2.83357e+00    9.56510e-01    7.08392e-01    5.25001e-01    7.08392e-01    2.39127e-01    1.31250e-01    1.31250e-01    2.39127e-01
    4.00000e+00    1.00000e+00   -3.01475e-04   -7.53640e-06    5.05883e+00    2.24827e+00    5.61683e-01    5.62045e-01    5.62682e-01    5.62029e-01    1.40537e-01    1.40495e-01    1.40827e-01    1.40259e-01    2.83357e+00    9.56510e-01    7.08392e-01    5.25001e-01    7.08392e-01    2.39127e-01    1.31250e-01    1.31250e-01    2.39127e-01
    5.00000e+00    1.00000e+00   -4.56499e-04    1.46794e-05    5.05658e+00    2.24726e+00    5.61233e-01    5.61734e-01    5.62760e-01    5.61669e-01    1.40491e-01    1.40472e-01    1.40877e-01    1.40077e-01    2.83357e+00    9.56510e-01    7.08392e-01    5.25001e-01    7.08392e-01    2.39127e-01    1.31250e-01    1.31250e-01    2.39127e-01
    6.00000e+00    1.00000e+00   -6.45008e-04    2.34745e-05    5.05421e+00    2.24622e+00    5.60653e-01    5.61519e-01    5.62811e-01    5.61412e-01    1.40360e-01    1.40446e-01    1.40905e-01    1.39889e-01    2.83357e+00    9.56510e-01    7.08392e-01    5.25001e-01    7.08392e-01    2.39127e-01    1.31250e-01    1.31250e-01    2.39127e-01
    7.00000e+00    1.00000e+00   -8.31872e-04    3.99937e-05    5.05178e+00    2.24515e+00    5.60066e-01    5.61250e-01    5.62867e-01    5.61088e-01    1.40263e-01    1.40436e-01    1.40943e-01    1.39716e-01    2.83357e+00    9.56510e-01    7.08392e-01    5.25001e-01    7.08392e-01    2.39127e-01    1.31250e-01    1.31250e-01    2.39127e-01
    8.00000e+00    1.00000e+00   -1.01995e-03    6.06822e-05    5.04941e+00    2.24412e+00    5.59494e-01    5.61016e-01    5.62925e-01    5.60785e-01    1.40153e-01    1.40418e-01    1.40975e-01    1.39520e-01    2.83357e+00    9.56510e-01    7.08392e-01    5.25001e-01    7.08392e-01    2.39127e-01    1.31250e-01    1.31250e-01    2.39127e-01
    9.00000e+00    1.00000e+00   -1.19787e-03    7.60553e-05    5.04720e+00    2.24317e+00    5.58935e-01    5.60798e-01    5.62970e-01    5.60519e-01    1.40048e-01    1.40409e-01    1.41001e-01    1.39351e-01    2.83357e+00    9.56510e-01    7.08392e-01    5.25001e-01    7.08392e-01    2.39127e-01    1.31250e-01    1.31250e-01    2.39127e-01
    1.00000e+01    1.00000e+00   -1.35469e-03    8.89372e-05    5.04526e+00    2.24233e+00    5.58443e-01    5.60610e-01    5.63006e-01    5.60290e-01    1.39954e-01    1.40399e-01    1.41025e-01    1.39199e-01    2.83357e+00    9.56510e-01    7.08392e-01    5.25001e-01    7.08392e-01    2.39127e-01    1.31250e-01    1.31250e-01    2.39127e-01
    1.10000e+01    1.00000e+00   -1.48786e-03    9.57661e-05    5.04366e+00    2.24165e+00    5.58023e-01    5.60451e-01    5.63037e-01    5.60111e-01    1.39874e-01    1.40392e-01    1.41048e-01    1.39075e-01    2.83357e+00    9.56510e-01    7.08392e-01    5.25001e-01    7.08392e-01    2.39127e-01    1.31250e-01    1.31250e-01    2.39127e-01
    1.20000e+01    1.00000e+00   -1.59733e-03    9.66613e-05    5.04242e+00    2.24111e+00    5.57686e-01    5.60327e-01    5.63067e-01    5.59987e-01    1.39809e-01    1.40386e-01    1.41071e-01    1.38976e-01    2.83357e+00    9.56510e-01    7.08392e-01    5.25001e-01    7.08392e-01    2.39127e-01    1.31250e-01    1.31250e-01    2.39127e-01
    1.30000e+01    1.00000e+00   -1.68486e-03    9.02722e-05    5.04156e+00    2.24074e+00    5.57425e-01    5.60234e-01    5.63101e-01    5.59918e-01    1.39758e-01    1.40384e-01    1.41097e-01    1.38906e-01    2.83357e+00    9.56510e-01    7.08392e-01    5.25001e-01    7.08392e-01    2.39127e-01    1.31250e-01    1.31250e-01    2.39127e-01
    1.40000e+01    1.00000e+00   -1.75392e-03    7.79876e-05    5.04104e+00    2.24050e+00    5.57235e-01    5.60171e-01    5.63144e-01    5.59897e-01    1.39720e-01    1.40385e-01    1.41127e-01    1.38859e-01    2.83357e+00    9.56510e-01    7.08392e-01    5.25001e-01    7.08392e-01    2.39127e-01    1.31250e-01    1.31250e-01    2.39127e-01
    1.50000e+01    1.00000e+00   -1.80893e-03    5.98046e-05    5.04082e+00    2.24039e+00    5.57104e-01    5.60133e-01    5.63199e-01    5.59921e-01    1.39692e-01    1.40389e-01    1.41159e-01    1.38833e-01    2.83357e+00    9.56510e-01    7.08392e-01    5.25001e-01    7.08392e-01    2.39127e-01    1.31250e-01    1.31250e-01    2.39127e-01
    1.60000e+01    1.00000e+00   -1.85405e-03    3.78689e-05    5.04085e+00    2.24038e+00    5.57018e-01    5.60116e-01    5.63265e-01    5.59978e-01    1.39672e-01    1.40398e-01    1.41195e-01    1.38822e-01    2.83357e+00    9.56510e-01    7.08392e-01    5.25001e-01    7.08392e-01    2.39127e-01    1.31250e-01    1.31250e-01    2.39127e-01
    1.70000e+01    1.00000e+00   -1.89257e-03    1.39895e-05    5.04105e+00    2.24045e+00    5.56965e-01    5.60116e-01    5.63343e-01    5.60057e-01    1.39659e-01    1.40411e-01    1.41234e-01    1.38823e-01    2.83357e+00    9.56510e-01    7.08392e-01    5.25001e-01    7.08392e-01    2.39127e-01    1.31250e-01    1.31250e-01    2.39127e-01
    1.80000e+01    1.00000e+00   -1.92674e-03   -1.09576e-05    5.04139e+00    2.24057e+00    5.56935e-01    5.60128e-01    5.63429e-01    5.60153e-01    1.39649e-01    1.40426e-01    1.41273e-01    1.38832e-01    2.83357e+00    9.56510e-01    7.08392e-01    5.25001e-01    7.08392e-01    2.39127e-01    1.31250e-01    1.31250e-01    2.39127e-01
    1.90000e+01    1.00000e+00   -1.95768e-03   -3.58545e-05    5.04182e+00    2.24073e+00    5.56919e-01    5.60150e-01    5.63520e-01    5.60259e-01    1.39641e-01    1.40444e-01    1.41312e-01    1.38845e-01    2.83357e+00    9.56510e-01    7.08392e-01    5.25001e-01    7.08392e-01    2.39127e-01    1.31250e-01    1.31250e-01    2.39127e-01
    2.00000e+01    1.00000e+00   -1.98525e-03   -5.88067e-05    5.04229e+00    2.24091e+00    5.56914e-01    5.60179e-01    5.63610e-01    5.60366e-01    1.39636e-01    1.40463e-01    1.41349e-01    1.38862e-01    2.83357e+00    9.56510e-01    7.08392e-01    5.25001e-01    7.08392e-01    2.39127e-01    1.31250e-01    1.31250e-01    2.39127e-01
    2.10000e+01    1.00000e+00   -2.00843e-03   -7.98902e-05    5.04279e+00    2.24111e+00    5.56919e-01    5.60215e-01    5.63696e-01    5.60473e-01    1.39633e-01    1.40484e-01    1.41381e-01    1.38881e-01    2.83357e+00    9.56510e-01    7.08392e-01    5.25001e-01    7.08392e-01    2.39127e-01    1.31250e-01    1.31250e-01    2.39127e-01
    2.20000e+01    1.00000e+00   -2.02553e-03   -9.91048e-05    5.04331e+00    2.24132e+00    5.56935e-01    5.60257e-01    5.63773e-01    5.60580e-01    1.39631e-01    1.40504e-01    1.41408e-01    1.38903e-01    2.83357e+00    9.56510e-01    7.08392e-01    5.25001e-01    7.08392e-01    2.39127e-01    1.31250e-01    1.31250e-01    2.39127e-01
    2.30000e+01    1.00000e+00   -2.03426e-03   -1.15355e-04    5.04385e+00    2.24155e+00    5.56966e-01    5.60304e-01    5.63837e-01    5.60683e-01    1.39632e-01    1.40524e-01    1.41428e-01    1.38930e-01    2.83357e+00    9.56510e-01    7.08392e-01    5.25001e-01    7.08392e-01    2.39127e-01    1.31250e-01    1.31250e-01    2.39127e-01
    2.40000e+01    1.00000e+00   -2.03198e-03   -1.28342e-04    5.04440e+00    2.24178e+00    5.57015e-01    5.60357e-01    5.63881e-01    5.60781e-01    1.39637e-01    1.40542e-01    1.41440e-01    1.38962e-01    2.83357e+00    9.56510e-01    7.08392e-01    5.25001e-01    7.08392e-01    2.39127e-01    1.31250e-01    1.31250e-01    2.39127e-01
    2.50000e+01    1.00000e+00   -2.01597e-03   -1.38711e-04    5.04494e+00    2.24202e+00    5.57086e-01    5.60414e-01    5.63901e-01    5.60876e-01    1.39645e-01    1.40557e-01    1.41441e-01    1.38999e-01    2.83357e+00    9.56510e-01    7.08392e-01    5.25001e-01    7.08392e-01    2.39127e-01    1.31250e-01    1.31250e-01    2.39127e-01
    2.60000e+01    1.00000e+00   -1.98348e-03   -1.45116e-04    5.04546e+00    2.24226e+00    5.57181e-01    5.60474e-01    5.63890e-01    5.60960e-01    1.39656e-01    1.40569e-01    1.41429e-01    1.39043e-01    2.83357e+00    9.56510e-01    7.08392e-01    5.25001e-01    7.08392e-01    2.39127e-01    1.31250e-01    1.31250e-01    2.39127e-01
    2.70000e+01    1.00000e+00   -1.93187e-03   -1.47046e-04    5.04592e+00    2.24247e+00    5.57301e-01    5.60534e-01    5.63839e-01    5.61029e-01    1.39673e-01    1.40575e-01    1.41402e-01    1.39093e-01    2.83357e+00    9.56510e-01    7.08392e-01    5.25001e-01    7.08392e-01    2.39127e-01    1.31250e-01    1.31250e-01    2.39127e-01
    2.80000e+01    1.00000e+00   -1.85872e-03   -1.44865e-04    5.04629e+00    2.24266e+00    5.57448e-01    5.60589e-01    5.63741e-01    5.61080e-01    1.39694e-01    1.40574e-01    1.41357e-01    1.39151e-01    2.83357e+00    9.56510e-01    7.08392e-01    5.25001e-01    7.08392e-01    2.39127e-01    1.31250e-01    1.31250e-01    2.39127e-01
    2.90000e+01    1.00000e+00   -1.76207e-03   -1.37977e-04    5.04655e+00    2.24280e+00    5.57622e-01    5.60640e-01    5.63590e-01    5.61111e-01    1.39719e-01    1.40564e-01    1.41293e-01    1.39214e-01    2.83357e+00    9.56510e-01    7.08392e-01    5.25001e-01    7.08392e-01    2.39127e-01    1.31250e-01    1.31250e-01    2.39127e-01
    3.00000e+01    1.00000e+00   -1.64174e-03   -1.25497e-04    5.04667e+00    2.24289e+00    5.57823e-01    5.60677e-01    5.63387e-01    5.61111e-01    1.39748e-01    1.40547e-01    1.41208e-01    1.39286e-01    2.83357e+00    9.56510e-01    7.08392e-01    5.25001e-01    7.08392e-01    2.39127e-01    1.31250e-01    1.31250e-01    2.39127e-01
    3.10000e+01    1.00000e+00   -1.49758e-03   -1.09287e-04    5.04665e+00    2.24291e+00    5.58049e-01    5.60707e-01    5.63126e-01    5.61088e-01    1.39780e-01    1.40518e-01    1.41106e-01    1.39362e-01    2.83357e+00    9.56510e-01    7.08392e-01    5.25001e-01    7.08392e-01    2.39127e-01    1.31250e-01    1.31250e-01    2.39127e-01
    3.20000e+01    1.00000e+00   -1.33111e-03   -8.84853e-05    5.04648e+00    2.24288e+00    5.58301e-01    5.60715e-01    5.62818e-01    5.61034e-01    1.39818e-01    1.40483e-01    1.40982e-01    1.39447e-01    2.83357e+00    9.56510e-01    7.08392e-01    5.25001e-01    7.08392e-01    2.39127e-01    1.31250e-01    1.31250e-01    2.39127e-01
    3.30000e+01    1.00000e+00   -1.14547e-03   -6.06987e-05    5.04619e+00    2.24280e+00    5.58576e-01    5.60732e-01    5.62461e-01    5.60957e-01    1.39855e-01    1.40438e-01    1.40844e-01    1.39531e-01    2.83357e+00    9.56510e-01    7.08392e-01    5.25001e-01    7.08392e-01    2.39127e-01    1.31250e-01    1.31250e-01    2.39127e-01
    3.40000e+01    1.00000e+00   -9.48469e-04   -3.44675e-05    5.04582e+00    2.24268e+00    5.58873e-01    5.60716e-01    5.62099e-01    5.60855e-01    1.39896e-01    1.40385e-01    1.40693e-01    1.39623e-01    2.83357e+00    9.56510e-01    7.08392e-01    5.25001e-01    7.08392e-01    2.39127e-01    1.31250e-01    1.31250e-01    2.39127e-01
    3.50000e+01    1.00000e+00   -7.48920e-04    4.67238e-06    5.04534e+00    2.24251e+00    5.59171e-01    5.60689e-01    5.61706e-01    5.60717e-01    1.39941e-01    1.40358e-01    1.40537e-01    1.39711e-01    2.83357e+00    9.56510e-01    7.08392e-01    5.25001e-01    7.08392e-01    2.39127e-01    1.31250e-01    1.31250e-01    2.39127e-01
    3.60000e+01    1.00000e+00   -5.31920e-04    5.23262e-05    5.04492e+00    2.24237e+00    5.59468e-01    5.60762e-01    5.61286e-01    5.60583e-01    1.39994e-01    1.40276e-01    1.40384e-01    1.39801e-01    2.83357e+00    9.56510e-01    7.08392e-01    5.25001e-01    7.08392e-01    2.39127e-01    1.31250e-01    1.31250e-01    2.39127e-01
    3.70000e+01    1.00000e+00   -3.73612e-04    8.88376e-05    5.04456e+00    2.24225e+00    5.59823e-01    5.60624e-01    5.61141e-01    5.60381e-01    1.40014e-01    1.40260e-01    1.40195e-01    1.39874e-01    2.83357e+00    9.56510e-01    7.08392e-01    5.25001e-01    7.08392e-01    2.39127e-01    1.31250e-01    1.31250e-01    2.39127e-01
    3.80000e+01    1.00000e+00   -2.44861e-04    1.89543e-04    5.04425e+00    2.24216e+00    5.59988e-01    5.60752e-01    5.60758e-01    5.60185e-01    1.40064e-01    1.40337e-01    1.40102e-01    1.39909e-01    2.83357e+00    9.56510e-01    7.08392e-01    5.25001e-01    7.08392e-01    2.39127e-01    1.31250e-01    1.31250e-01    2.39127e-01
    3.90000e+01    1.00000e+00    0.00000e+00    0.00000e+00    5.04384e+00    2.24201e+00    5.60206e-01    5.60759e-01    5.60206e-01    5.60447e-01    1.40121e-01    1.39989e-01    1.40121e-01    1.39989e-01    2.83357e+00    9.56510e-01    7.08392e-01    5.25001e-01    7.08392e-01    2.39127e-01    1.31250e-01    1.31250e-01    2.39127e-01
    0.00000e+00    2.00000e+00    0.00000e+00    0.00000e+00    5.06259e+00    2.24999e+00    5.62503e-01    5.62811e-01    5.62503e-01    5.62306e-01    1.40562e-01    1.40674e-01    1.40562e-01    1.40674e-01    2.83357e+00    9.56510e-01    7.08392e-01    5.25001e-01    7.08392e-01    2.39127e-01    1.31250e-01    1.31250e-01    2.39127e-01
    1.00000e+00    2.00000e+00   -1.23832e-04    4.00912e-05    5.06203e+00    2.24972e+00    5.62455e-01    5.62243e-01    5.62885e-01    5.62119e-01    1.40644e-01    1.40695e-01    1.40703e-01    1.40557e-01    2.83357e+00    9.56510e-01    7.08392e-01    5.25001e-01    7.08392e-01    2.39127e-01    1.31250e-01    1.31250e-01    2.39127e-01
    2.00000e+00    2.00000e+00   -3.44201e-04    1.15769e-05    5.06108e+00    2.24930e+00    5.61910e-01    5.62199e-01    5.63092e-01    5.62179e-01    1.40522e-01    1.40697e-01    1.40783e-01    1.40398e-01    2.83357e+00    9.56510e-01    7.08392e-01    5.25001e-01    7.08392e-01    2.39127e-01    1.31250e-01    1.31250e-01    2.39127e-01
    3.00000e+00    2.00000e+00   -5.47471e-04    5.44157e-05    5.05962e+00    2.24864e+00    5.61448e-01    5.62095e-01    5.63300e-01    5.61904e-01    1.40369e-01    1.40789e-01    1.40786e-01    1.40288e-01    2.83357e+00    9.56510e-01    7.08392e-01    5.25001e-01    7.08392e-01    2.39127e-01    1.31250e-01    1.31250e-01    2.39127e-01
    4.00000e+00    2.00000e+00   -8.02689e-04    1.19455e-04    5.05772e+00    2.24778e+00    5.60856e-01    5.61946e-01    5.63580e-01    5.61533e-01    1.40271e-01    1.40839e-01    1.40843e-01    1.40075e-01    2.83357e+00    9.56510e-01    7.08392e-01    5.25001e-01    7.08392e-01    2.39127e-01    1.31250e-01    1.31250e-01    2.39127e-01
    5.00000e+00    2.00000e+00   -1.07947e-03    1.80973e-04    5.05570e+00    2.24687e+00    5.60133e-01    5.61824e-01    5.63814e-01    5.61222e-01    1.40177e-01    1.40898e-01    1.40908e-01    1.39853e-01    2.83357e+00    9.56510e-01    7.08392e-01    5.25001e-01    7.08392e-01    2.39127e-01    1.31250e-01    1.31250e-01    2.39127e-01