TITLE="LBM output"
VARIABLES = "X", "Y", "U","V","density","f0","f1","f2","f3","f4","f5","f6","f7","f8","feq0","feq1","feq2","feq3","feq4","feq5","feq6","feq7","feq8",
ZONE T = "fluid", I=40, J=40, F=POINT
SOLUTIONTIME=1573
    0.00000e+00    0.00000e+00    0.00000e+00    0.00000e+00    5.17182e+00    2.29846e+00    5.74653e-01    5.74651e-01    5.74653e-01    5.74651e-01    1.43719e-01    1.43654e-01    1.43719e-01    1.43654e-01    2.93737e+00    9.91547e-01    7.34341e-01    5.44233e-01    7.34341e-01    2.47887e-01    1.36058e-01    1.36058e-01    2.47887e-01
    1.00000e+00    0.00000e+00    0.00000e+00    0.00000e+00    5.17238e+00    2.29870e+00    5.74588e-01    5.74786e-01    5.74704e-01    5.74786e-01    1.43737e-01    1.43670e-01    1.43737e-01    1.43670e-01    2.93737e+00    9.91547e-01    7.34341e-01    5.44233e-01    7.34341e-01    2.47887e-01    1.36058e-01    1.36058e-01    2.47887e-01
    2.00000e+00    0.00000e+00    0.00000e+00    0.00000e+00    5.17264e+00    2.29881e+00    5.74736e-01    5.74778e-01    5.74700e-01    5.74778e-01    1.43779e-01    1.43637e-01    1.43779e-01    1.43637e-01    2.93737e+00    9.91547e-01    7.34341e-01    5.44233e-01    7.34341e-01    2.47887e-01    1.36058e-01    1.36058e-01    2.47887e-01
    3.00000e+00    0.00000e+00    0.00000e+00    0.00000e+00    5.17279e+00    2.29889e+00    5.74683e-01    5.74811e-01    5.74750e-01    5.74811e-01    1.43835e-01    1.43591e-01    1.43835e-01    1.43591e-01    2.93737e+00    9.91547e-01    7.34341e-01    5.44233e-01    7.34341e-01    2.47887e-01    1.36058e-01    1.36058e-01    2.47887e-01
    4.00000e+00    0.00000e+00    0.00000e+00    0.00000e+00    5.17323e+00    2.29908e+00    5.74750e-01    5.74845e-01    5.74794e-01    5.74845e-01    1.43906e-01    1.43551e-01    1.43906e-01    1.43551e-01    2.93737e+00    9.91547e-01    7.34341e-01    5.44233e-01    7.34341e-01    2.47887e-01    1.36058e-01    1.36058e-01    2.47887e-01
    5.00000e+00    0.00000e+00    0.00000e+00    0.00000e+00    5.17366e+00    2.29928e+00    5.74788e-01    5.74893e-01    5.74851e-01    5.74893e-01    1.43984e-01    1.43497e-01    1.43984e-01    1.43497e-01    2.93737e+00    9.91547e-01    7.34341e-01    5.44233e-01    7.34341e-01    2.47887e-01    1.36058e-01    1.36058e-01    2.47887e-01
    6.00000e+00    0.00000e+00    0.00000e+00    0.00000e+00    5.17422e+00    2.29953e+00    5.74844e-01    5.74954e-01    5.74920e-01    5.74954e-01    1.44069e-01    1.43440e-01    1.44069e-01    1.43440e-01    2.93737e+00    9.91547e-01    7.34341e-01    5.44233e-01    7.34341e-01    2.47887e-01    1.36058e-01    1.36058e-01    2.47887e-01
    7.00000e+00    0.00000e+00    0.00000e+00    0.00000e+00    5.17486e+00    2.29982e+00    5.74913e-01    5.75024e-01    5.74996e-01    5.75024e-01    1.44156e-01    1.43388e-01    1.44156e-01    1.43388e-01    2.93737e+00    9.91547e-01    7.34341e-01    5.44233e-01    7.34341e-01    2.47887e-01    1.36058e-01    1.36058e-01    2.47887e-01
    8.00000e+00    0.00000e+00    0.00000e+00    0.00000e+00    5.17557e+00    2.30014e+00    5.74987e-01    5.75102e-01    5.75082e-01    5.75102e-01    1.44247e-01    1.43334e-01    1.44247e-01    1.43334e-01    2.93737e+00    9.91547e-01    7.34341e-01    5.44233e-01    7.34341e-01    2.47887e-01    1.36058e-01    1.36058e-01    2.47887e-01
    9.00000e+00    0.00000e+00    0.00000e+00    0.00000e+00    5.17635e+00    2.30049e+00    5.75072e-01    5.75187e-01    5.75173e-01    5.75187e-01    1.44336e-01    1.43286e-01    1.44336e-01    1.43286e-01    2.93737e+00    9.91547e-01    7.34341e-01    5.44233e-01    7.34341e-01    2.47887e-01    1.36058e-01    1.36058e-01    2.47887e-01
    1.00000e+01    0.00000e+00    0.00000e+00    0.00000e+00    5.17718e+00    2.30086e+00    5.75162e-01    5.75279e-01    5.75270e-01    5.75279e-01    1.44425e-01    1.43240e-01    1.44425e-01    1.43240e-01    2.93737e+00    9.91547e-01    7.34341e-01    5.44233e-01    7.34341e-01    2.47887e-01    1.36058e-01    1.36058e-01    2.47887e-01
    1.10000e+01    0.00000e+00    0.00000e+00    0.00000e+00    5.17806e+00    2.30126e+00    5.75259e-01    5.75374e-01    5.75371e-01    5.75374e-01    1.44512e-01    1.43200e-01    1.44512e-01    1.43200e-01    2.93737e+00    9.91547e-01    7.34341e-01    5.44233e-01    7.34341e-01    2.47887e-01    1.36058e-01    1.36058e-01    2.47887e-01
    1.20000e+01    0.00000e+00    0.00000e+00    0.00000e+00    5.17897e+00    2.30167e+00    5.75360e-01    5.75474e-01    5.75476e-01    5.75474e-01    1.44595e-01    1.43164e-01    1.44595e-01    1.43164e-01    2.93737e+00    9.91547e-01    7.34341e-01    5.44233e-01    7.34341e-01    2.47887e-01    1.36058e-01    1.36058e-01    2.47887e-01
    1.30000e+01    0.00000e+00    0.00000e+00    0.00000e+00    5.17991e+00    2.30209e+00    5.75464e-01    5.75577e-01    5.75583e-01    5.75577e-01    1.44672e-01    1.43135e-01    1.44672e-01    1.43135e-01    2.93737e+00    9.91547e-01    7.34341e-01    5.44233e-01    7.34341e-01    2.47887e-01    1.36058e-01    1.36058e-01    2.47887e-01
    1.40000e+01    0.00000e+00    0.00000e+00    0.00000e+00    5.18087e+00    2.30252e+00    5.75571e-01    5.75682e-01    5.75691e-01    5.75682e-01    1.44745e-01    1.43112e-01    1.44745e-01    1.43112e-01    2.93737e+00    9.91547e-01    7.34341e-01    5.44233e-01    7.34341e-01    2.47887e-01    1.36058e-01    1.36058e-01    2.47887e-01
    1.50000e+01    0.00000e+00    0.00000e+00    0.00000e+00    5.18183e+00    2.30296e+00    5.75679e-01    5.75788e-01    5.75800e-01    5.75788e-01    1.44811e-01    1.43097e-01    1.44811e-01    1.43097e-01    2.93737e+00    9.91547e-01    7.34341e-01    5.44233e-01    7.34341e-01    2.47887e-01    1.36058e-01    1.36058e-01    2.47887e-01
    1.60000e+01    0.00000e+00    0.00000e+00    0.00000e+00    5.18280e+00    2.30340e+00    5.75788e-01    5.75895e-01    5.75909e-01    5.75895e-01    1.44866e-01    1.43091e-01    1.44866e-01    1.43091e-01    2.93737e+00    9.91547e-01    7.34341e-01    5.44233e-01    7.34341e-01    2.47887e-01    1.36058e-01    1.36058e-01    2.47887e-01
    1.70000e+01    0.00000e+00    0.00000e+00    0.00000e+00    5.18376e+00    2.30383e+00    5.75897e-01    5.76001e-01    5.76018e-01    5.76001e-01    1.44912e-01    1.43095e-01    1.44912e-01    1.43095e-01    2.93737e+00    9.91547e-01    7.34341e-01    5.44233e-01    7.34341e-01    2.47887e-01    1.36058e-01    1.36058e-01    2.47887e-01
    1.80000e+01    0.00000e+00    0.00000e+00    0.00000e+00    5.18471e+00    2.30426e+00    5.76006e-01    5.76107e-01    5.76124e-01    5.76107e-01    1.44946e-01    1.43109e-01    1.44946e-01    1.43109e-01    2.93737e+00    9.91547e-01    7.34341e-01    5.44233e-01    7.34341e-01    2.47887e-01    1.36058e-01    1.36058e-01    2.47887e-01
    1.90000e+01    0.00000e+00    0.00000e+00    0.00000e+00    5.18565e+00    2.30468e+00    5.76112e-01    5.76211e-01    5.76228e-01    5.76211e-01    1.44966e-01    1.43137e-01    1.44966e-01    1.43137e-01    2.93737e+00    9.91547e-01    7.34341e-01    5.44233e-01    7.34341e-01    2.47887e-01    1.36058e-01    1.36058e-01    2.47887e-01
    2.00000e+01    0.00000e+00    0.00000e+00    0.00000e+00    5.18655e+00    2.30509e+00    5.76216e-01    5.76313e-01    5.76328e-01    5.76313e-01    1.44971e-01    1.43176e-01    1.44971e-01    1.43176e-01    2.93737e+00    9.91547e-01    7.34341e-01    5.44233e-01    7.34341e-01    2.47887e-01    1.36058e-01    1.36058e-01    2.47887e-01
    2.10000e+01    0.00000e+00    0.00000e+00    0.00000e+00    5.18743e+00    2.30548e+00    5.76317e-01    5.76411e-01    5.76424e-01    5.76411e-01    1.44963e-01    1.43228e-01    1.44963e-01    1.43228e-01    2.93737e+00    9.91547e-01    7.34341e-01    5.44233e-01    7.34341e-01    2.47887e-01    1.36058e-01    1.36058e-01    2.47887e-01
    2.20000e+01    0.00000e+00    0.00000e+00    0.00000e+00    5.18826e+00    2.30586e+00    5.76414e-01    5.76505e-01    5.76516e-01    5.76505e-01    1.44939e-01    1.43293e-01    1.44939e-01    1.43293e-01    2.93737e+00    9.91547e-01    7.34341e-01    5.44233e-01    7.34341e-01    2.47887e-01    1.36058e-01    1.36058e-01    2.47887e-01
    2.30000e+01    0.00000e+00    0.00000e+00    0.00000e+00    5.18905e+00    2.30622e+00    5.76506e-01    5.76593e-01    5.76602e-01    5.76593e-01    1.44901e-01    1.43369e-01    1.44901e-01    1.43369e-01    2.93737e+00    9.91547e-01    7.34341e-01    5.44233e-01    7.34341e-01    2.47887e-01    1.36058e-01    1.36058e-01    2.47887e-01
    2.40000e+01    0.00000e+00    0.00000e+00    0.00000e+00    5.18978e+00    2.30655e+00    5.76593e-01    5.76674e-01    5.76681e-01    5.76674e-01    1.44852e-01    1.43455e-01    1.44852e-01    1.43455e-01    2.93737e+00    9.91547e-01    7.34341e-01    5.44233e-01    7.34341e-01    2.47887e-01    1.36058e-01    1.36058e-01    2.47887e-01
    2.50000e+01    0.00000e+00    0.00000e+00    0.00000e+00    5.19046e+00    2.30685e+00    5.76673e-01    5.76749e-01    5.76753e-01    5.76749e-01    1.44792e-01    1.43548e-01    1.44792e-01    1.43548e-01    2.93737e+00    9.91547e-01    7.34341e-01    5.44233e-01    7.34341e-01    2.47887e-01    1.36058e-01    1.36058e-01    2.47887e-01
    2.60000e+01    0.00000e+00    0.00000e+00    0.00000e+00    5.19106e+00    2.30713e+00    5.76746e-01    5.76815e-01    5.76818e-01    5.76815e-01    1.44724e-01    1.43647e-01    1.44724e-01    1.43647e-01    2.93737e+00    9.91547e-01    7.34341e-01    5.44233e-01    7.34341e-01    2.47887e-01    1.36058e-01    1.36058e-01    2.47887e-01
    2.70000e+01    0.00000e+00    0.00000e+00    0.00000e+00    5.19161e+00    2.30738e+00    5.76812e-01    5.76873e-01    5.76876e-01    5.76873e-01    1.44653e-01    1.43746e-01    1.44653e-01    1.43746e-01    2.93737e+00    9.91547e-01    7.34341e-01    5.44233e-01    7.34341e-01    2.47887e-01    1.36058e-01    1.36058e-01    2.47887e-01
    2.80000e+01    0.00000e+00    0.00000e+00    0.00000e+00    5.19208e+00    2.30759e+00    5.76870e-01    5.76922e-01    5.76924e-01    5.76922e-01    1.44582e-01    1.43843e-01    1.44582e-01    1.43843e-01    2.93737e+00    9.91547e-01    7.34341e-01    5.44233e-01    7.34341e-01    2.47887e-01    1.36058e-01    1.36058e-01    2.47887e-01
    2.90000e+01    0.00000e+00    0.00000e+00    0.00000e+00    5.19249e+00    2.30778e+00    5.76921e-01    5.76963e-01    5.76969e-01    5.76963e-01    1.44513e-01    1.43934e-01    1.44513e-01    1.43934e-01    2.93737e+00    9.91547e-01    7.34341e-01    5.44233e-01    7.34341e-01    2.47887e-01    1.36058e-01    1.36058e-01    2.47887e-01
    3.00000e+01    0.00000e+00    0.00000e+00    0.00000e+00    5.19284e+00    2.30794e+00    5.76965e-01    5.76997e-01    5.77003e-01    5.76997e-01    1.44451e-01    1.44018e-01    1.44451e-01    1.44018e-01    2.93737e+00    9.91547e-01    7.34341e-01    5.44233e-01    7.34341e-01    2.47887e-01    1.36058e-01    1.36058e-01    2.47887e-01
    3.10000e+01    0.00000e+00    0.00000e+00    0.00000e+00    5.19313e+00    2.30807e+00    5.77001e-01    5.77023e-01    5.77036e-01    5.77023e-01    1.44397e-01    1.44089e-01    1.44397e-01    1.44089e-01    2.93737e+00    9.91547e-01    7.34341e-01    5.44233e-01    7.34341e-01    2.47887e-01    1.36058e-01    1.36058e-01    2.47887e-01
    3.20000e+01    0.00000e+00    0.00000e+00    0.00000e+00    5.19337e+00    2.30818e+00    5.77032e-01    5.77045e-01    5.77057e-01    5.77045e-01    1.44355e-01    1.44147e-01    1.44355e-01    1.44147e-01    2.93737e+00    9.91547e-01    7.34341e-01    5.44233e-01    7.34341e-01    2.47887e-01    1.36058e-01    1.36058e-01    2.47887e-01
    3.30000e+01    0.00000e+00    0.00000e+00    0.00000e+00    5.19356e+00    2.30827e+00    5.77057e-01    5.77060e-01    5.77082e-01    5.77060e-01    1.44323e-01    1.44192e-01    1.44323e-01    1.44192e-01    2.93737e+00    9.91547e-01    7.34341e-01    5.44233e-01    7.34341e-01    2.47887e-01    1.36058e-01    1.36058e-01    2.47887e-01
    3.40000e+01    0.00000e+00    0.00000e+00    0.00000e+00    5.19373e+00    2.30835e+00    5.77079e-01    5.77073e-01    5.77095e-01    5.77073e-01    1.44305e-01    1.44223e-01    1.44305e-01    1.44223e-01    2.93737e+00    9.91547e-01    7.34341e-01    5.44233e-01    7.34341e-01    2.47887e-01    1.36058e-01    1.36058e-01    2.47887e-01
    3.50000e+01    0.00000e+00    0.00000e+00    0.00000e+00    5.19385e+00    2.30841e+00    5.77095e-01    5.77082e-01    5.77109e-01    5.77082e-01    1.44293e-01    1.44242e-01    1.44293e-01    1.44242e-01    2.93737e+00    9.91547e-01    7.34341e-01    5.44233e-01    7.34341e-01    2.47887e-01    1.36058e-01    1.36058e-01    2.47887e-01
    3.60000e+01    0.00000e+00    0.00000e+00    0.00000e+00    5.19398e+00    2.30847e+00    5.77108e-01    5.77094e-01    5.77129e-01    5.77094e-01    1.44294e-01    1.44251e-01    1.44294e-01    1.44251e-01    2.93737e+00    9.91547e-01    7.34341e-01    5.44233e-01    7.34341e-01    2.47887e-01    1.36058e-01    1.36058e-01    2.47887e-01
    3.70000e+01    0.00000e+00    0.00000e+00    0.00000e+00    5.19404e+00    2.30850e+00    5.77125e-01    5.77105e-01    5.77116e-01    5.77105e-01    1.44287e-01    1.44258e-01    1.44287e-01    1.44258e-01    2.93737e+00    9.91547e-01    7.34341e-01    5.44233e-01    7.34341e-01    2.47887e-01    1.36058e-01    1.36058e-01    2.47887e-01
    3.80000e+01    0.00000e+00    0.00000e+00    0.00000e+00    5.19413e+00    2.30854e+00    5.77124e-01    5.77109e-01    5.77160e-01    5.77109e-01    1.44284e-01    1.44260e-01    1.44284e-01    1.44260e-01    2.93737e+00    9.91547e-01    7.34341e-01    5.44233e-01    7.34341e-01    2.47887e-01    1.36058e-01    1.36058e-01    2.47887e-01
    3.90000e+01    0.00000e+00    0.00000e+00    0.00000e+00    5.19430e+00    2.30861e+00    5.77143e-01    5.77142e-01    5.77143e-01    5.77142e-01    1.44288e-01    1.44272e-01    1.44288e-01    1.44272e-01    2.93737e+00    9.91547e-01    7.34341e-01    5.44233e-01    7.34341e-01    2.47887e-01    1.36058e-01    1.36058e-01    2.47887e-01
    0.00000e+00    1.00000e+00    0.00000e+00    0.00000e+00    5.17239e+00    2.29871e+00    5.74788e-01    5.74590e-01    5.74788e-01    5.74711e-01    1.43738e-01    1.43667e-01    1.43738e-01    1.43667e-01    2.93737e+00    9.91547e-01    7.34341e-01    5.44233e-01    7.34341e-01    2.47887e-01    1.36058e-01    1.36058e-01    2.47887e-01
    1.00000e+00    1.00000e+00   -1.07914e-04   -6.79588e-05    5.17246e+00    2.29874e+00    5.74597e-01    5.74596e-01    5.74960e-01    5.74808e-01    1.43608e-01    1.43705e-01    1.43775e-01    1.43678e-01    2.93737e+00    9.91547e-01    7.34341e-01    5.44233e-01    7.34341e-01    2.47887e-01    1.36058e-01    1.36058e-01    2.47887e-01
    2.00000e+00    1.00000e+00   -2.15200e-04   -3.15043e-05    5.17267e+00    2.29883e+00    5.74442e-01    5.74650e-01    5.75203e-01    5.74732e-01    1.43619e-01    1.43748e-01    1.43835e-01    1.43612e-01    2.93737e+00    9.91547e-01    7.34341e-01    5.44233e-01    7.34341e-01    2.47887e-01    1.36058e-01    1.36058e-01    2.47887e-01
    3.00000e+00    1.00000e+00   -3.66586e-04   -9.23412e-06    5.17296e+00    2.29896e+00    5.74277e-01    5.74660e-01    5.75556e-01    5.74672e-01    1.43600e-01    1.43800e-01    1.43925e-01    1.43509e-01    2.93737e+00    9.91547e-01    7.34341e-01    5.44233e-01    7.34341e-01    2.47887e-01    1.36058e-01    1.36058e-01    2.47887e-01
    4.00000e+00    1.00000e+00   -5.63806e-04    1.11521e-05    5.17333e+00    2.29912e+00    5.74006e-01    5.74717e-01    5.75965e-01    5.74647e-01    1.43565e-01    1.43864e-01    1.44050e-01    1.43391e-01    2.93737e+00    9.91547e-01    7.34341e-01    5.44233e-01    7.34341e-01    2.47887e-01    1.36058e-01    1.36058e-01    2.47887e-01
    5.00000e+00    1.00000e+00   -7.84492e-04    2.40221e-05    5.17378e+00    2.29933e+00    5.73693e-01    5.74767e-01    5.76420e-01    5.74652e-01    1.43531e-01    1.43935e-01    1.44192e-01    1.43265e-01    2.93737e+00    9.91547e-01    7.34341e-01    5.44233e-01    7.34341e-01    2.47887e-01    1.36058e-01    1.36058e-01    2.47887e-01
    6.00000e+00    1.00000e+00   -1.02218e-03    3.24602e-05    5.17434e+00    2.29958e+00    5.73358e-01    5.74830e-01    5.76908e-01    5.74683e-01    1.43493e-01    1.44008e-01    1.44352e-01    1.43128e-01    2.93737e+00    9.91547e-01    7.34341e-01    5.44233e-01    7.34341e-01    2.47887e-01    1.36058e-01    1.36058e-01    2.47887e-01
    7.00000e+00    1.00000e+00   -1.26869e-03    3.77552e-05    5.17497e+00    2.29986e+00    5.73007e-01    5.74904e-01    5.77413e-01    5.74736e-01    1.43454e-01    1.44086e-01    1.44520e-01    1.42992e-01    2.93737e+00    9.91547e-01    7.34341e-01    5.44233e-01    7.34341e-01    2.47887e-01    1.36058e-01    1.36058e-01    2.47887e-01
    8.00000e+00    1.00000e+00   -1.51753e-03    4.08018e-05    5.17568e+00    2.30018e+00    5.72657e-01    5.74985e-01    5.77925e-01    5.74806e-01    1.43418e-01    1.44162e-01    1.44696e-01    1.42853e-01    2.93737e+00    9.91547e-01    7.34341e-01    5.44233e-01    7.34341e-01    2.47887e-01    1.36058e-01    1.36058e-01    2.47887e-01
    9.00000e+00    1.00000e+00   -1.76367e-03    4.11646e-05    5.17645e+00    2.30052e+00    5.72313e-01    5.75074e-01    5.78436e-01    5.74892e-01    1.43383e-01    1.44240e-01    1.44871e-01    1.42721e-01    2.93737e+00    9.91547e-01    7.34341e-01    5.44233e-01    7.34341e-01    2.47887e-01    1.36058e-01    1.36058e-01    2.47887e-01
    1.00000e+01    1.00000e+00   -2.00298e-03    4.07185e-05    5.17728e+00    2.30089e+00    5.71985e-01    5.75169e-01    5.78937e-01    5.74988e-01    1.43353e-01    1.44315e-01    1.45047e-01    1.42591e-01    2.93737e+00    9.91547e-01    7.34341e-01    5.44233e-01    7.34341e-01    2.47887e-01    1.36058e-01    1.36058e-01    2.47887e-01
    1.10000e+01    1.00000e+00   -2.23182e-03    3.83303e-05    5.17815e+00    2.30128e+00    5.71675e-01    5.75270e-01    5.79422e-01    5.75097e-01    1.43325e-01    1.44389e-01    1.45217e-01    1.42471e-01    2.93737e+00    9.91547e-01    7.34341e-01    5.44233e-01    7.34341e-01    2.47887e-01    1.36058e-01    1.36058e-01    2.47887e-01
    1.20000e+01    1.00000e+00   -2.44653e-03    3.42481e-05    5.17905e+00    2.30168e+00    5.71391e-01    5.75375e-01    5.79883e-01    5.75216e-01    1.43301e-01    1.44459e-01    1.45381e-01    1.42360e-01    2.93737e+00    9.91547e-01    7.34341e-01    5.44233e-01    7.34341e-01    2.47887e-01    1.36058e-01    1.36058e-01    2.47887e-01
    1.30000e+01    1.00000e+00   -2.64324e-03    2.81164e-05    5.17998e+00    2.30210e+00    5.71136e-01    5.75482e-01    5.80311e-01    5.75345e-01    1.43281e-01    1.44525e-01    1.45535e-01    1.42262e-01    2.93737e+00    9.91547e-01    7.34341e-01    5.44233e-01    7.34341e-01    2.47887e-01    1.36058e-01    1.36058e-01    2.47887e-01
    1.40000e+01    1.00000e+00   -2.81745e-03    2.01692e-05    5.18092e+00    2.30252e+00    5.70918e-01    5.75592e-01    5.80697e-01    5.75484e-01    1.43267e-01    1.44585e-01    1.45677e-01    1.42178e-01    2.93737e+00    9.91547e-01    7.34341e-01    5.44233e-01    7.34341e-01    2.47887e-01    1.36058e-01    1.36058e-01    2.47887e-01
    1.50000e+01    1.00000e+00   -2.96445e-03    9.15295e-06    5.18187e+00    2.30295e+00    5.70743e-01    5.75702e-01    5.81033e-01    5.75635e-01    1.43257e-01    1.44639e-01    1.45802e-01    1.42113e-01    2.93737e+00    9.91547e-01    7.34341e-01    5.44233e-01    7.34341e-01    2.47887e-01    1.36058e-01    1.36058e-01    2.47887e-01
    1.60000e+01    1.00000e+00   -3.07921e-03   -4.42366e-06    5.18283e+00    2.30338e+00    5.70618e-01    5.75812e-01    5.81308e-01    5.75796e-01    1.43254e-01    1.44685e-01    1.45908e-01    1.42070e-01    2.93737e+00    9.91547e-01    7.34341e-01    5.44233e-01    7.34341e-01    2.47887e-01    1.36058e-01    1.36058e-01    2.47887e-01
    1.70000e+01    1.00000e+00   -3.15659e-03   -2.02558e-05    5.18378e+00    2.30380e+00    5.70552e-01    5.75922e-01    5.81512e-01    5.75965e-01    1.43259e-01    1.44722e-01    1.45992e-01    1.42051e-01    2.93737e+00    9.91547e-01    7.34341e-01    5.44233e-01    7.34341e-01    2.47887e-01    1.36058e-01    1.36058e-01    2.47887e-01
    1.80000e+01    1.00000e+00   -3.19190e-03   -3.86722e-05    5.18471e+00    2.30422e+00    5.70554e-01    5.76030e-01    5.81637e-01    5.76143e-01    1.43271e-01    1.44748e-01    1.46048e-01    1.42059e-01    2.93737e+00    9.91547e-01    7.34341e-01    5.44233e-01    7.34341e-01    2.47887e-01    1.36058e-01    1.36058e-01    2.47887e-01
    1.90000e+01    1.00000e+00   -3.18123e-03   -5.94502e-05    5.18563e+00    2.30464e+00    5.70629e-01    5.76136e-01    5.81676e-01    5.76327e-01    1.43291e-01    1.44763e-01    1.46075e-01    1.42097e-01    2.93737e+00    9.91547e-01    7.34341e-01    5.44233e-01    7.34341e-01    2.47887e-01    1.36058e-01    1.36058e-01    2.47887e-01
    2.00000e+01    1.00000e+00   -3.12170e-03   -8.06862e-05    5.18652e+00    2.30504e+00    5.70783e-01    5.76239e-01    5.81625e-01    5.76511e-01    1.43323e-01    1.44767e-01    1.46070e-01    1.42165e-01    2.93737e+00    9.91547e-01    7.34341e-01    5.44233e-01    7.34341e-01    2.47887e-01    1.36058e-01    1.36058e-01    2.47887e-01
    2.10000e+01    1.00000e+00   -3.01230e-03   -1.02140e-04    5.18738e+00    2.30543e+00    5.71020e-01    5.76338e-01    5.81483e-01    5.76692e-01    1.43363e-01    1.44758e-01    1.46033e-01    1.42265e-01    2.93737e+00    9.91547e-01    7.34341e-01    5.44233e-01    7.34341e-01    2.47887e-01    1.36058e-01    1.36058e-01    2.47887e-01
    2.20000e+01    1.00000e+00   -2.85415e-03   -1.23196e-04    5.18820e+00    2.30580e+00    5.71338e-01    5.76432e-01    5.81254e-01    5.76868e-01    1.43413e-01    1.44738e-01    1.45961e-01    1.42394e-01    2.93737e+00    9.91547e-01    7.34341e-01    5.44233e-01    7.34341e-01    2.47887e-01    1.36058e-01    1.36058e-01    2.47887e-01
    2.30000e+01    1.00000e+00   -2.65053e-03   -1.41376e-04    5.18898e+00    2.30616e+00    5.71734e-01    5.76521e-01    5.80944e-01    5.77028e-01    1.43474e-01    1.44708e-01    1.45859e-01    1.42550e-01    2.93737e+00    9.91547e-01    7.34341e-01    5.44233e-01    7.34341e-01    2.47887e-01    1.36058e-01    1.36058e-01    2.47887e-01
    2.40000e+01    1.00000e+00   -2.40737e-03   -1.55508e-04    5.18970e+00    2.30649e+00    5.72201e-01    5.76605e-01    5.80568e-01    5.77167e-01    1.43543e-01    1.44669e-01    1.45728e-01    1.42728e-01    2.93737e+00    9.91547e-01    7.34341e-01    5.44233e-01    7.34341e-01    2.47887e-01    1.36058e-01    1.36058e-01    2.47887e-01
    2.50000e+01    1.00000e+00   -2.13311e-03   -1.65414e-04    5.19036e+00    2.30679e+00    5.72723e-01    5.76683e-01    5.80140e-01    5.77285e-01    1.43618e-01    1.44623e-01    1.45574e-01    1.42923e-01    2.93737e+00    9.91547e-01    7.34341e-01    5.44233e-01    7.34341e-01    2.47887e-01    1.36058e-01    1.36058e-01    2.47887e-01
    2.60000e+01    1.00000e+00   -1.83807e-03   -1.69268e-04    5.19097e+00    2.30707e+00    5.73287e-01    5.76753e-01    5.79680e-01    5.77374e-01    1.43699e-01    1.44573e-01    1.45402e-01    1.43127e-01    2.93737e+00    9.91547e-01    7.34341e-01    5.44233e-01    7.34341e-01    2.47887e-01    1.36058e-01    1.36058e-01    2.47887e-01
    2.70000e+01    1.00000e+00   -1.53412e-03   -1.66037e-04    5.19151e+00    2.30732e+00    5.73871e-01    5.76818e-01    5.79209e-01    5.77430e-01    1.43782e-01    1.44521e-01    1.45221e-01    1.43333e-01    2.93737e+00    9.91547e-01    7.34341e-01    5.44233e-01    7.34341e-01    2.47887e-01    1.36058e-01    1.36058e-01    2.47887e-01
    2.80000e+01    1.00000e+00   -1.23388e-03   -1.56767e-04    5.19198e+00    2.30754e+00    5.74454e-01    5.76875e-01    5.78751e-01    5.77455e-01    1.43866e-01    1.44470e-01    1.45037e-01    1.43533e-01    2.93737e+00    9.91547e-01    7.34341e-01    5.44233e-01    7.34341e-01    2.47887e-01    1.36058e-01    1.36058e-01    2.47887e-01
    2.90000e+01    1.00000e+00   -9.49708e-04   -1.41238e-04    5.19240e+00    2.30773e+00    5.75015e-01    5.76927e-01    5.78326e-01    5.77451e-01    1.43945e-01    1.44423e-01    1.44860e-01    1.43717e-01    2.93737e+00    9.91547e-01    7.34341e-01    5.44233e-01    7.34341e-01    2.47887e-01    1.36058e-01    1.36058e-01    2.47887e-01
    3.00000e+01    1.00000e+00   -6.92869e-04   -1.20261e-04    5.19275e+00    2.30790e+00    5.75533e-01    5.76971e-01    5.77952e-01    5.77419e-01    1.44020e-01    1.44382e-01    1.44698e-01    1.43881e-01    2.93737e+00    9.91547e-01    7.34341e-01    5.44233e-01    7.34341e-01    2.47887e-01    1.36058e-01    1.36058e-01    2.47887e-01
    3.10000e+01    1.00000e+00   -4.72554e-04   -9.50031e-05    5.19305e+00    2.30804e+00    5.75989e-01    5.77011e-01    5.77643e-01    5.77367e-01    1.44086e-01    1.44349e-01    1.44555e-01    1.44018e-01    2.93737e+00    9.91547e-01    7.34341e-01    5.44233e-01    7.34341e-01    2.47887e-01    1.36058e-01    1.36058e-01    2.47887e-01
    3.20000e+01    1.00000e+00   -2.95120e-04   -6.81879e-05    5.19331e+00    2.30815e+00    5.76370e-01    5.77043e-01    5.77407e-01    5.77300e-01    1.44143e-01    1.44324e-01    1.44440e-01    1.44125e-01    2.93737e+00    9.91547e-01    7.34341e-01    5.44233e-01    7.34341e-01    2.47887e-01    1.36058e-01    1.36058e-01    2.47887e-01
    3.30000e+01    1.00000e+00   -1.64087e-04   -3.97324e-05    5.19352e+00    2.30825e+00    5.76668e-01    5.77073e-01    5.77250e-01    5.77226e-01    1.44189e-01    1.44309e-01    1.44351e-01    1.44200e-01    2.93737e+00    9.91547e-01    7.34341e-01    5.44233e-01    7.34341e-01    2.47887e-01    1.36058e-01    1.36058e-01    2.47887e-01
    3.40000e+01    1.00000e+00   -7.89192e-05   -1.42706e-05    5.19369e+00    2.30833e+00    5.76880e-01    5.77096e-01    5.77165e-01    5.77155e-01    1.44223e-01    1.44300e-01    1.44294e-01    1.44245e-01    2.93737e+00    9.91547e-01    7.34341e-01    5.44233e-01    7.34341e-01    2.47887e-01    1.36058e-01    1.36058e-01    2.47887e-01
    3.50000e+01    1.00000e+00   -3.44473e-05    7.95772e-06    5.19383e+00    2.30840e+00    5.77011e-01    5.77116e-01    5.77139e-01    5.77094e-01    1.44246e-01    1.44301e-01    1.44262e-01    1.44266e-01    2.93737e+00    9.91547e-01    7.34341e-01    5.44233e-01    7.34341e-01    2.47887e-01    1.36058e-01    1.36058e-01    2.47887e-01
    3.60000e+01    1.00000e+00   -1.86146e-05    2.03202e-05    5.19395e+00    2.30846e+00    5.77073e-01    5.77133e-01    5.77144e-01    5.77063e-01    1.44262e-01    1.44298e-01    1.44257e-01    1.44267e-01    2.93737e+00    9.91547e-01    7.34341e-01    5.44233e-01    7.34341e-01    2.47887e-01    1.36058e-01    1.36058e-01    2.47887e-01
    3.70000e+01    1.00000e+00   -2.08321e-05    2.62547e-05    5.19405e+00    2.30850e+00    5.77095e-01    5.77137e-01    5.77175e-01    5.77049e-01    1.44269e-01    1.44301e-01    1.44259e-01    1.44263e-01    2.93737e+00    9.91547e-01    7.34341e-01    5.44233e-01    7.34341e-01    2.47887e-01    1.36058e-01    1.36058e-01    2.47887e-01
    3.80000e+01    1.00000e+00   -2.18818e-05    2.32677e-05    5.19411e+00    2.30853e+00    5.77090e-01    5.77152e-01    5.77158e-01    5.77075e-01    1.44277e-01    1.44300e-01    1.44277e-01    1.44255e-01    2.93737e+00    9.91547e-01    7.34341e-01    5.44233e-01    7.34341e-01    2.47887e-01    1.36058e-01    1.36058e-01    2.47887e-01
    3.90000e+01    1.00000e+00    0.00000e+00    0.00000e+00    5.19413e+00    2.30854e+00    5.77102e-01    5.77161e-01    5.77102e-01    5.77125e-01    1.44283e-01    1.44268e-01    1.44283e-01    1.44268e-01    2.93737e+00    9.91547e-01    7.34341e-01    5.44233e-01    7.34341e-01    2.47887e-01    1.36058e-01    1.36058e-01    2.47887e-01
    0.00000e+00    2.00000e+00    0.00000e+00    0.00000e+00    5.17268e+00    2.29883e+00    5.74795e-01    5.74738e-01    5.74795e-01    5.74703e-01    1.43734e-01    1.43676e-01    1.43734e-01    1.43676e-01    2.93737e+00    9.91547e-01    7.34341e-01    5.44233e-01    7.34341e-01    2.47887e-01    1.36058e-01    1.36058e-01    2.47887e-01
    1.00000e+00    2.00000e+00   -1.24094e-04   -4.62026e-05    5.17267e+00    2.29883e+00    5.74646e-01    5.74563e-01    5.75071e-01    5.74738e-01    1.43619e-01    1.43760e-01    1.43759e-01    1.43684e-01    2.93737e+00    9.91547e-01    7.34341e-01    5.44233e-01    7.34341e-01    2.47887e-01    1.36058e-01    1.36058e-01    2.47887e-01
    2.00000e+00    2.00000e+00   -3.09581e-04    3.67964e-05    5.17285e+00    2.29891e+00    5.74395e-01    5.74672e-01    5.75474e-01    5.74555e-01    1.43593e-01    1.43865e-01    1.43818e-01    1.43567e-01    2.93737e+00    9.91547e-01    7.34341e-01    5.44233e-01    7.34341e-01    2.47887e-01    1.36058e-01    1.36058e-01    2.47887e-01
    3.00000e+00    2.00000e+00   -5.61466e-04    1.23490e-04    5.17313e+00    2.29904e+00    5.74067e-01    5.74789e-01    5.76008e-01    5.74366e-01    1.43544e-01    1.43998e-01    1.43918e-01    1.43408e-01    2.93737e+00    9.91547e-01    7.34341e-01    5.44233e-01    7.34341e-01    2.47887e-01    1.36058e-01    1.36058e-01    2.47887e-01
    4.00000e+00    2.00000e+00   -8.79366e-04    1.88919e-04    5.17348e+00    2.29919e+00    5.73619e-01    5.74880e-01    5.76651e-01    5.74231e-01    1.43477e-01    1.44142e-01    1.44070e-01    1.43220e-01    2.93737e+00    9.91547e-01    7.34341e-01    5.44233e-01    7.34341e-01    2.47887e-01    1.36058e-01    1.36058e-01    2.47887e-01
    5.00000e+00    2.00000e+00   -1.24415e-03    2.34412e-04    5.17395e+00    2.29940e+00    5.73074e-01    5.74969e-01    5.77371e-01    5.74167e-01    1.43388e-01    1.44301e-01    1.44253e-01    1.43026e-01    2.93737e+00    9.91547e-01    7.34341e-01    5.44233e-01    7.34341e-01    2.47887e-01    1.36058e-01    1.36058e-01    2.47887e-01