TITLE="LBM output"
VARIABLES = "X", "Y", "U","V","density","f0","f1","f2","f3","f4","f5","f6","f7","f8","feq0","feq1","feq2","feq3","feq4","feq5","feq6","feq7","feq8",
ZONE T = "fluid", I=40, J=40, F=POINT
SOLUTIONTIME=90
    0.00000e+00    0.00000e+00    0.00000e+00    0.00000e+00    4.95669e+00    2.20277e+00    5.50748e-01    5.50766e-01    5.50748e-01    5.50766e-01    1.37776e-01    1.37673e-01    1.37776e-01    1.37673e-01    2.78796e+00    9.41113e-01    6.96990e-01    5.16551e-01    6.96990e-01    2.35278e-01    1.29138e-01    1.29138e-01    2.35278e-01
    1.00000e+00    0.00000e+00    0.00000e+00    0.00000e+00    4.95813e+00    2.20327e+00    5.50665e-01    5.51043e-01    5.50929e-01    5.51043e-01    1.37898e-01    1.37693e-01    1.37898e-01    1.37693e-01    2.78796e+00    9.41113e-01    6.96990e-01    5.16551e-01    6.96990e-01    2.35278e-01    1.29138e-01    1.29138e-01    2.35278e-01
    2.00000e+00    0.00000e+00    0.00000e+00    0.00000e+00    4.95977e+00    2.20381e+00    5.50917e-01    5.51245e-01    5.51043e-01    5.51245e-01    1.38112e-01    1.37644e-01    1.38112e-01    1.37644e-01    2.78796e+00    9.41113e-01    6.96990e-01    5.16551e-01    6.96990e-01    2.35278e-01    1.29138e-01    1.29138e-01    2.35278e-01
    3.00000e+00    0.00000e+00    0.00000e+00    0.00000e+00    4.96287e+00    2.20493e+00    5.50932e-01    5.51734e-01    5.51529e-01    5.51734e-01    1.38418e-01    1.37591e-01    1.38418e-01    1.37591e-01    2.78796e+00    9.41113e-01    6.96990e-01    5.16551e-01    6.96990e-01    2.35278e-01    1.29138e-01    1.29138e-01    2.35278e-01
    4.00000e+00    0.00000e+00    0.00000e+00    0.00000e+00    4.96811e+00    2.20702e+00    5.51411e-01    5.52395e-01    5.52101e-01    5.52395e-01    1.38774e-01    1.37616e-01    1.38774e-01    1.37616e-01    2.78796e+00    9.41113e-01    6.96990e-01    5.16551e-01    6.96990e-01    2.35278e-01    1.29138e-01    1.29138e-01    2.35278e-01
    5.00000e+00    0.00000e+00    0.00000e+00    0.00000e+00    4.97414e+00    2.20947e+00    5.51991e-01    5.53182e-01    5.52775e-01    5.53182e-01    1.39173e-01    1.37599e-01    1.39173e-01    1.37599e-01    2.78796e+00    9.41113e-01    6.96990e-01    5.16551e-01    6.96990e-01    2.35278e-01    1.29138e-01    1.29138e-01    2.35278e-01
    6.00000e+00    0.00000e+00    0.00000e+00    0.00000e+00    4.98150e+00    2.21252e+00    5.52595e-01    5.54137e-01    5.53633e-01    5.54137e-01    1.39616e-01    1.37621e-01    1.39616e-01    1.37621e-01    2.78796e+00    9.41113e-01    6.96990e-01    5.16551e-01    6.96990e-01    2.35278e-01    1.29138e-01    1.29138e-01    2.35278e-01
    7.00000e+00    0.00000e+00    0.00000e+00    0.00000e+00    4.98953e+00    2.21599e+00    5.53508e-01    5.55061e-01    5.54489e-01    5.55061e-01    1.40048e-01    1.37663e-01    1.40048e-01    1.37663e-01    2.78796e+00    9.41113e-01    6.96990e-01    5.16551e-01    6.96990e-01    2.35278e-01    1.29138e-01    1.29138e-01    2.35278e-01
    8.00000e+00    0.00000e+00    0.00000e+00    0.00000e+00    4.99743e+00    2.21952e+00    5.54358e-01    5.55958e-01    5.55371e-01    5.55958e-01    1.40445e-01    1.37687e-01    1.40445e-01    1.37687e-01    2.78796e+00    9.41113e-01    6.96990e-01    5.16551e-01    6.96990e-01    2.35278e-01    1.29138e-01    1.29138e-01    2.35278e-01
    9.00000e+00    0.00000e+00    0.00000e+00    0.00000e+00    5.00484e+00    2.22297e+00    5.55291e-01    5.56731e-01    5.56173e-01    5.56731e-01    1.40768e-01    1.37701e-01    1.40768e-01    1.37701e-01    2.78796e+00    9.41113e-01    6.96990e-01    5.16551e-01    6.96990e-01    2.35278e-01    1.29138e-01    1.29138e-01    2.35278e-01
    1.00000e+01    0.00000e+00    0.00000e+00    0.00000e+00    5.01110e+00    2.22604e+00    5.56130e-01    5.57324e-01    5.56864e-01    5.57324e-01    1.41003e-01    1.37707e-01    1.41003e-01    1.37707e-01    2.78796e+00    9.41113e-01    6.96990e-01    5.16551e-01    6.96990e-01    2.35278e-01    1.29138e-01    1.29138e-01    2.35278e-01
    1.10000e+01    0.00000e+00    0.00000e+00    0.00000e+00    5.01594e+00    2.22855e+00    5.56866e-01    5.57714e-01    5.57396e-01    5.57714e-01    1.41140e-01    1.37709e-01    1.41140e-01    1.37709e-01    2.78796e+00    9.41113e-01    6.96990e-01    5.16551e-01    6.96990e-01    2.35278e-01    1.29138e-01    1.29138e-01    2.35278e-01
    1.20000e+01    0.00000e+00    0.00000e+00    0.00000e+00    5.01922e+00    2.23040e+00    5.57429e-01    5.57916e-01    5.57762e-01    5.57916e-01    1.41186e-01    1.37712e-01    1.41186e-01    1.37712e-01    2.78796e+00    9.41113e-01    6.96990e-01    5.16551e-01    6.96990e-01    2.35278e-01    1.29138e-01    1.29138e-01    2.35278e-01
    1.30000e+01    0.00000e+00    0.00000e+00    0.00000e+00    5.02103e+00    2.23156e+00    5.57815e-01    5.57960e-01    5.57966e-01    5.57960e-01    1.41160e-01    1.37722e-01    1.41160e-01    1.37722e-01    2.78796e+00    9.41113e-01    6.96990e-01    5.16551e-01    6.96990e-01    2.35278e-01    1.29138e-01    1.29138e-01    2.35278e-01
    1.40000e+01    0.00000e+00    0.00000e+00    0.00000e+00    5.02163e+00    2.23211e+00    5.58025e-01    5.57895e-01    5.58038e-01    5.57895e-01    1.41089e-01    1.37743e-01    1.41089e-01    1.37743e-01    2.78796e+00    9.41113e-01    6.96990e-01    5.16551e-01    6.96990e-01    2.35278e-01    1.29138e-01    1.29138e-01    2.35278e-01
    1.50000e+01    0.00000e+00    0.00000e+00    0.00000e+00    5.02139e+00    2.23219e+00    5.58091e-01    5.57774e-01    5.58016e-01    5.57774e-01    1.40996e-01    1.37775e-01    1.40996e-01    1.37775e-01    2.78796e+00    9.41113e-01    6.96990e-01    5.16551e-01    6.96990e-01    2.35278e-01    1.29138e-01    1.29138e-01    2.35278e-01
    1.60000e+01    0.00000e+00    0.00000e+00    0.00000e+00    5.02070e+00    2.23197e+00    5.58054e-01    5.57643e-01    5.57942e-01    5.57643e-01    1.40902e-01    1.37819e-01    1.40902e-01    1.37819e-01    2.78796e+00    9.41113e-01    6.96990e-01    5.16551e-01    6.96990e-01    2.35278e-01    1.29138e-01    1.29138e-01    2.35278e-01
    1.70000e+01    0.00000e+00    0.00000e+00    0.00000e+00    5.01989e+00    2.23161e+00    5.57963e-01    5.57535e-01    5.57853e-01    5.57535e-01    1.40824e-01    1.37868e-01    1.40824e-01    1.37868e-01    2.78796e+00    9.41113e-01    6.96990e-01    5.16551e-01    6.96990e-01    2.35278e-01    1.29138e-01    1.29138e-01    2.35278e-01
    1.80000e+01    0.00000e+00    0.00000e+00    0.00000e+00    5.01919e+00    2.23125e+00    5.57857e-01    5.57467e-01    5.57774e-01    5.57467e-01    1.40767e-01    1.37920e-01    1.40767e-01    1.37920e-01    2.78796e+00    9.41113e-01    6.96990e-01    5.16551e-01    6.96990e-01    2.35278e-01    1.29138e-01    1.29138e-01    2.35278e-01
    1.90000e+01    0.00000e+00    0.00000e+00    0.00000e+00    5.01875e+00    2.23097e+00    5.57766e-01    5.57444e-01    5.57722e-01    5.57444e-01    1.40731e-01    1.37971e-01    1.40731e-01    1.37971e-01    2.78796e+00    9.41113e-01    6.96990e-01    5.16551e-01    6.96990e-01    2.35278e-01    1.29138e-01    1.29138e-01    2.35278e-01
    2.00000e+01    0.00000e+00    0.00000e+00    0.00000e+00    5.01861e+00    2.23082e+00    5.57707e-01    5.57458e-01    5.57703e-01    5.57458e-01    1.40715e-01    1.38017e-01    1.40715e-01    1.38017e-01    2.78796e+00    9.41113e-01    6.96990e-01    5.16551e-01    6.96990e-01    2.35278e-01    1.29138e-01    1.29138e-01    2.35278e-01
    2.10000e+01    0.00000e+00    0.00000e+00    0.00000e+00    5.01875e+00    2.23081e+00    5.57687e-01    5.57498e-01    5.57718e-01    5.57498e-01    1.40713e-01    1.38057e-01    1.40713e-01    1.38057e-01    2.78796e+00    9.41113e-01    6.96990e-01    5.16551e-01    6.96990e-01    2.35278e-01    1.29138e-01    1.29138e-01    2.35278e-01
    2.20000e+01    0.00000e+00    0.00000e+00    0.00000e+00    5.01912e+00    2.23093e+00    5.57702e-01    5.57554e-01    5.57760e-01    5.57554e-01    1.40719e-01    1.38091e-01    1.40719e-01    1.38091e-01    2.78796e+00    9.41113e-01    6.96990e-01    5.16551e-01    6.96990e-01    2.35278e-01    1.29138e-01    1.29138e-01    2.35278e-01
    2.30000e+01    0.00000e+00    0.00000e+00    0.00000e+00    5.01968e+00    2.23117e+00    5.57750e-01    5.57618e-01    5.57832e-01    5.57618e-01    1.40727e-01    1.38121e-01    1.40727e-01    1.38121e-01    2.78796e+00    9.41113e-01    6.96990e-01    5.16551e-01    6.96990e-01    2.35278e-01    1.29138e-01    1.29138e-01    2.35278e-01
    2.40000e+01    0.00000e+00    0.00000e+00    0.00000e+00    5.02041e+00    2.23152e+00    5.57826e-01    5.57687e-01    5.57928e-01    5.57687e-01    1.40736e-01    1.38148e-01    1.40736e-01    1.38148e-01    2.78796e+00    9.41113e-01    6.96990e-01    5.16551e-01    6.96990e-01    2.35278e-01    1.29138e-01    1.29138e-01    2.35278e-01
    2.50000e+01    0.00000e+00    0.00000e+00    0.00000e+00    5.02132e+00    2.23197e+00    5.57928e-01    5.57762e-01    5.58055e-01    5.57762e-01    1.40741e-01    1.38179e-01    1.40741e-01    1.38179e-01    2.78796e+00    9.41113e-01    6.96990e-01    5.16551e-01    6.96990e-01    2.35278e-01    1.29138e-01    1.29138e-01    2.35278e-01
    2.60000e+01    0.00000e+00    0.00000e+00    0.00000e+00    5.02243e+00    2.23254e+00    5.58056e-01    5.57852e-01    5.58210e-01    5.57852e-01    1.40740e-01    1.38219e-01    1.40740e-01    1.38219e-01    2.78796e+00    9.41113e-01    6.96990e-01    5.16551e-01    6.96990e-01    2.35278e-01    1.29138e-01    1.29138e-01    2.35278e-01
    2.70000e+01    0.00000e+00    0.00000e+00    0.00000e+00    5.02381e+00    2.23324e+00    5.58214e-01    5.57965e-01    5.58411e-01    5.57965e-01    1.40730e-01    1.38274e-01    1.40730e-01    1.38274e-01    2.78796e+00    9.41113e-01    6.96990e-01    5.16551e-01    6.96990e-01    2.35278e-01    1.29138e-01    1.29138e-01    2.35278e-01
    2.80000e+01    0.00000e+00    0.00000e+00    0.00000e+00    5.02550e+00    2.23410e+00    5.58408e-01    5.58115e-01    5.58640e-01    5.58115e-01    1.40713e-01    1.38348e-01    1.40713e-01    1.38348e-01    2.78796e+00    9.41113e-01    6.96990e-01    5.16551e-01    6.96990e-01    2.35278e-01    1.29138e-01    1.29138e-01    2.35278e-01
    2.90000e+01    0.00000e+00    0.00000e+00    0.00000e+00    5.02756e+00    2.23512e+00    5.58637e-01    5.58301e-01    5.58930e-01    5.58301e-01    1.40689e-01    1.38451e-01    1.40689e-01    1.38451e-01    2.78796e+00    9.41113e-01    6.96990e-01    5.16551e-01    6.96990e-01    2.35278e-01    1.29138e-01    1.29138e-01    2.35278e-01
    3.00000e+01    0.00000e+00    0.00000e+00    0.00000e+00    5.03003e+00    2.23629e+00    5.58910e-01    5.58550e-01    5.59240e-01    5.58550e-01    1.40662e-01    1.38585e-01    1.40662e-01    1.38585e-01    2.78796e+00    9.41113e-01    6.96990e-01    5.16551e-01    6.96990e-01    2.35278e-01    1.29138e-01    1.29138e-01    2.35278e-01
    3.10000e+01    0.00000e+00    0.00000e+00    0.00000e+00    5.03306e+00    2.23767e+00    5.59211e-01    5.58880e-01    5.59642e-01    5.58880e-01    1.40640e-01    1.38747e-01    1.40640e-01    1.38747e-01    2.78796e+00    9.41113e-01    6.96990e-01    5.16551e-01    6.96990e-01    2.35278e-01    1.29138e-01    1.29138e-01    2.35278e-01
    3.20000e+01    0.00000e+00    0.00000e+00    0.00000e+00    5.03637e+00    2.23913e+00    5.59581e-01    5.59278e-01    5.59971e-01    5.59278e-01    1.40627e-01    1.38941e-01    1.40627e-01    1.38941e-01    2.78796e+00    9.41113e-01    6.96990e-01    5.16551e-01    6.96990e-01    2.35278e-01    1.29138e-01    1.29138e-01    2.35278e-01
    3.30000e+01    0.00000e+00    0.00000e+00    0.00000e+00    5.04059e+00    2.24096e+00    5.59929e-01    5.59708e-01    5.60603e-01    5.59708e-01    1.40689e-01    1.39156e-01    1.40689e-01    1.39156e-01    2.78796e+00    9.41113e-01    6.96990e-01    5.16551e-01    6.96990e-01    2.35278e-01    1.29138e-01    1.29138e-01    2.35278e-01
    3.40000e+01    0.00000e+00    0.00000e+00    0.00000e+00    5.04477e+00    2.24268e+00    5.60462e-01    5.60313e-01    5.60826e-01    5.60313e-01    1.40692e-01    1.39397e-01    1.40692e-01    1.39397e-01    2.78796e+00    9.41113e-01    6.96990e-01    5.16551e-01    6.96990e-01    2.35278e-01    1.29138e-01    1.29138e-01    2.35278e-01
    3.50000e+01    0.00000e+00    0.00000e+00    0.00000e+00    5.04791e+00    2.24402e+00    5.60796e-01    5.60740e-01    5.61188e-01    5.60740e-01    1.40602e-01    1.39611e-01    1.40602e-01    1.39611e-01    2.78796e+00    9.41113e-01    6.96990e-01    5.16551e-01    6.96990e-01    2.35278e-01    1.29138e-01    1.29138e-01    2.35278e-01
    3.60000e+01    0.00000e+00    0.00000e+00    0.00000e+00    5.05256e+00    2.24611e+00    5.61169e-01    5.61060e-01    5.62007e-01    5.61060e-01    1.40768e-01    1.39808e-01    1.40768e-01    1.39808e-01    2.78796e+00    9.41113e-01    6.96990e-01    5.16551e-01    6.96990e-01    2.35278e-01    1.29138e-01    1.29138e-01    2.35278e-01
    3.70000e+01    0.00000e+00    0.00000e+00    0.00000e+00    5.05342e+00    2.24625e+00    5.61803e-01    5.61531e-01    5.61125e-01    5.61531e-01    1.40561e-01    1.40027e-01    1.40561e-01    1.40027e-01    2.78796e+00    9.41113e-01    6.96990e-01    5.16551e-01    6.96990e-01    2.35278e-01    1.29138e-01    1.29138e-01    2.35278e-01
    3.80000e+01    0.00000e+00    0.00000e+00    0.00000e+00    5.05229e+00    2.24568e+00    5.61316e-01    5.61222e-01    5.61649e-01    5.61222e-01    1.40414e-01    1.40187e-01    1.40414e-01    1.40187e-01    2.78796e+00    9.41113e-01    6.96990e-01    5.16551e-01    6.96990e-01    2.35278e-01    1.29138e-01    1.29138e-01    2.35278e-01
    3.90000e+01    0.00000e+00    0.00000e+00    0.00000e+00    5.05359e+00    2.24635e+00    5.61545e-01    5.61469e-01    5.61545e-01    5.61469e-01    1.40397e-01    1.40210e-01    1.40397e-01    1.40210e-01    2.78796e+00    9.41113e-01    6.96990e-01    5.16551e-01    6.96990e-01    2.35278e-01    1.29138e-01    1.29138e-01    2.35278e-01
    0.00000e+00    1.00000e+00    0.00000e+00    0.00000e+00    4.95819e+00    2.20328e+00    5.51084e-01    5.50639e-01    5.51084e-01    5.50939e-01    1.37864e-01    1.37717e-01    1.37864e-01    1.37717e-01    2.78796e+00    9.41113e-01    6.96990e-01    5.16551e-01    6.96990e-01    2.35278e-01    1.29138e-01    1.29138e-01    2.35278e-01
    1.00000e+00    1.00000e+00   -2.85071e-04   -1.89377e-04    4.95889e+00    2.20348e+00    5.50674e-01    5.50702e-01    5.51570e-01    5.51264e-01    1.37608e-01    1.37803e-01    1.38055e-01    1.37733e-01    2.78796e+00    9.41113e-01    6.96990e-01    5.16551e-01    6.96990e-01    2.35278e-01    1.29138e-01    1.29138e-01    2.35278e-01
    2.00000e+00    1.00000e+00   -6.03204e-04   -2.39736e-04    4.96086e+00    2.20419e+00    5.50368e-01    5.50810e-01    5.52397e-01    5.51559e-01    1.37600e-01    1.37946e-01    1.38302e-01    1.37685e-01    2.78796e+00    9.41113e-01    6.96990e-01    5.16551e-01    6.96990e-01    2.35278e-01    1.29138e-01    1.29138e-01    2.35278e-01
    3.00000e+00    1.00000e+00   -1.05096e-03   -3.65795e-04    4.96434e+00    2.20554e+00    5.50128e-01    5.50950e-01    5.53625e-01    5.52133e-01    1.37531e-01    1.38133e-01    1.38708e-01    1.37590e-01    2.78796e+00    9.41113e-01    6.96990e-01    5.16551e-01    6.96990e-01    2.35278e-01    1.29138e-01    1.29138e-01    2.35278e-01
    4.00000e+00    1.00000e+00   -1.56897e-03   -5.29283e-04    4.96926e+00    2.20751e+00    5.49736e-01    5.51364e-01    5.54974e-01    5.53037e-01    1.37442e-01    1.38395e-01    1.39200e-01    1.37594e-01    2.78796e+00    9.41113e-01    6.96990e-01    5.16551e-01    6.96990e-01    2.35278e-01    1.29138e-01    1.29138e-01    2.35278e-01
    5.00000e+00    1.00000e+00   -2.08495e-03   -6.84685e-04    4.97529e+00    2.20999e+00    5.49494e-01    5.51835e-01    5.56489e-01    5.54042e-01    1.37418e-01    1.38698e-01    1.39707e-01    1.37609e-01    2.78796e+00    9.41113e-01    6.96990e-01    5.16551e-01    6.96990e-01    2.35278e-01    1.29138e-01    1.29138e-01    2.35278e-01
    6.00000e+00    1.00000e+00   -2.62127e-03   -8.22359e-04    4.98228e+00    2.21295e+00    5.49362e-01    5.52418e-01    5.58179e-01    5.55076e-01    1.37397e-01    1.39033e-01    1.40238e-01    1.37631e-01    2.78796e+00    9.41113e-01    6.96990e-01    5.16551e-01    6.96990e-01    2.35278e-01    1.29138e-01    1.29138e-01    2.35278e-01
    7.00000e+00    1.00000e+00   -3.15910e-03   -8.92721e-04    4.98969e+00    2.21617e+00    5.49227e-01    5.53196e-01    5.59886e-01    5.56077e-01    1.37386e-01    1.39397e-01    1.40726e-01    1.37632e-01    2.78796e+00    9.41113e-01    6.96990e-01    5.16551e-01    6.96990e-01    2.35278e-01    1.29138e-01    1.29138e-01    2.35278e-01
    8.00000e+00    1.00000e+00   -3.65610e-03   -8.97789e-04    4.99699e+00    2.21944e+00    5.49153e-01    5.54008e-01    5.61521e-01    5.56909e-01    1.37415e-01    1.39771e-01    1.41159e-01    1.37613e-01    2.78796e+00    9.41113e-01    6.96990e-01    5.16551e-01    6.96990e-01    2.35278e-01    1.29138e-01    1.29138e-01    2.35278e-01
    9.00000e+00    1.00000e+00   -4.08593e-03   -8.25364e-04    5.00371e+00    2.22256e+00    5.49126e-01    5.54876e-01    5.62974e-01    5.57533e-01    1.37465e-01    1.40119e-01    1.41500e-01    1.37557e-01    2.78796e+00    9.41113e-01    6.96990e-01    5.16551e-01    6.96990e-01    2.35278e-01    1.29138e-01    1.29138e-01    2.35278e-01
    1.00000e+01    1.00000e+00   -4.42556e-03   -6.78274e-04    5.00945e+00    2.22534e+00    5.49154e-01    5.55721e-01    5.64170e-01    5.57893e-01    1.37553e-01    1.40419e-01    1.41742e-01    1.37456e-01    2.78796e+00    9.41113e-01    6.96990e-01    5.16551e-01    6.96990e-01    2.35278e-01    1.29138e-01    1.29138e-01    2.35278e-01
    1.10000e+01    1.00000e+00   -4.66300e-03   -4.82636e-04    5.01397e+00    2.22764e+00    5.49226e-01    5.56497e-01    5.65056e-01    5.58024e-01    1.37663e-01    1.40652e-01    1.41885e-01    1.37324e-01    2.78796e+00    9.41113e-01    6.96990e-01    5.16551e-01    6.96990e-01    2.35278e-01    1.29138e-01    1.29138e-01    2.35278e-01
    1.20000e+01    1.00000e+00   -4.79739e-03   -2.67061e-04    5.01719e+00    2.22938e+00    5.49346e-01    5.57145e-01    5.65630e-01    5.57963e-01    1.37793e-01    1.40808e-01    1.41946e-01    1.37176e-01    2.78796e+00    9.41113e-01    6.96990e-01    5.16551e-01    6.96990e-01    2.35278e-01    1.29138e-01    1.29138e-01    2.35278e-01
    1.30000e+01    1.00000e+00   -4.84227e-03   -6.05469e-05    5.01920e+00    2.23057e+00    5.49497e-01    5.57638e-01    5.65922e-01    5.57780e-01    1.37929e-01    1.40888e-01    1.41950e-01    1.37029e-01    2.78796e+00    9.41113e-01    6.96990e-01    5.16551e-01    6.96990e-01    2.35278e-01    1.29138e-01    1.29138e-01    2.35278e-01
    1.40000e+01    1.00000e+00   -4.81829e-03    1.11615e-04    5.02020e+00    2.23126e+00    5.49662e-01    5.57966e-01    5.65989e-01    5.57547e-01    1.38059e-01    1.40902e-01    1.41919e-01    1.36900e-01    2.78796e+00    9.41113e-01    6.96990e-01    5.16551e-01    6.96990e-01    2.35278e-01    1.29138e-01    1.29138e-01    2.35278e-01
    1.50000e+01    1.00000e+00   -4.74852e-03    2.33108e-04    5.02046e+00    2.23154e+00    5.49827e-01    5.58144e-01    5.65900e-01    5.57331e-01    1.38170e-01    1.40866e-01    1.41874e-01    1.36804e-01    2.78796e+00    9.41113e-01    6.96990e-01    5.16551e-01    6.96990e-01    2.35278e-01    1.29138e-01    1.29138e-01    2.35278e-01
    1.60000e+01    1.00000e+00   -4.65449e-03    3.00477e-04    5.02027e+00    2.23156e+00    5.49982e-01    5.58199e-01    5.65722e-01    5.57171e-01    1.38256e-01    1.40802e-01    1.41829e-01    1.36748e-01    2.78796e+00    9.41113e-01    6.96990e-01    5.16551e-01    6.96990e-01    2.35278e-01    1.29138e-01    1.29138e-01    2.35278e-01
    1.70000e+01    1.00000e+00   -4.55296e-03    3.20133e-04    5.01989e+00    2.23143e+00    5.50123e-01    5.58172e-01    5.65508e-01    5.57083e-01    1.38318e-01    1.40727e-01    1.41793e-01    1.36732e-01    2.78796e+00    9.41113e-01    6.96990e-01    5.16551e-01    6.96990e-01    2.35278e-01    1.29138e-01    1.29138e-01    2.35278e-01
    1.80000e+01    1.00000e+00   -4.45484e-03    3.03641e-04    5.01950e+00    2.23125e+00    5.50251e-01    5.58101e-01    5.65299e-01    5.57070e-01    1.38356e-01    1.40655e-01    1.41765e-01    1.36752e-01    2.78796e+00    9.41113e-01    6.96990e-01    5.16551e-01    6.96990e-01    2.35278e-01    1.29138e-01    1.29138e-01    2.35278e-01
    1.90000e+01    1.00000e+00   -4.36560e-03    2.66057e-04    5.01924e+00    2.23110e+00    5.50372e-01    5.58022e-01    5.65118e-01    5.57117e-01    1.38375e-01    1.40597e-01    1.41744e-01    1.36798e-01    2.78796e+00    9.41113e-01    6.96990e-01    5.16551e-01    6.96990e-01    2.35278e-01    1.29138e-01    1.29138e-01    2.35278e-01
    2.00000e+01    1.00000e+00   -4.28621e-03    2.22830e-04    5.01918e+00    2.23103e+00    5.50493e-01    5.57959e-01    5.64972e-01    5.57196e-01    1.38385e-01    1.40557e-01    1.41725e-01    1.36862e-01    2.78796e+00    9.41113e-01    6.96990e-01    5.16551e-01    6.96990e-01    2.35278e-01    1.29138e-01    1.29138e-01    2.35278e-01
    2.10000e+01    1.00000e+00   -4.21444e-03    1.85402e-04    5.01932e+00    2.23105e+00    5.50622e-01    5.57929e-01    5.64863e-01    5.57290e-01    1.38391e-01    1.40537e-01    1.41702e-01    1.36935e-01    2.78796e+00    9.41113e-01    6.96990e-01    5.16551e-01    6.96990e-01    2.35278e-01    1.29138e-01    1.29138e-01    2.35278e-01
    2.20000e+01    1.00000e+00   -4.14635e-03    1.60495e-04    5.01966e+00    2.23117e+00    5.50766e-01    5.57941e-01    5.64782e-01    5.57384e-01    1.38398e-01    1.40533e-01    1.41673e-01    1.37010e-01    2.78796e+00    9.41113e-01    6.96990e-01    5.16551e-01    6.96990e-01    2.35278e-01    1.29138e-01    1.29138e-01    2.35278e-01
    2.30000e+01    1.00000e+00   -4.07672e-03    1.52926e-04    5.02020e+00    2.23141e+00    5.50934e-01    5.57996e-01    5.64720e-01    5.57466e-01    1.38412e-01    1.40545e-01    1.41633e-01    1.37087e-01    2.78796e+00    9.41113e-01    6.96990e-01    5.16551e-01    6.96990e-01    2.35278e-01    1.29138e-01    1.29138e-01    2.35278e-01
    2.40000e+01    1.00000e+00   -3.99936e-03    1.63213e-04    5.02094e+00    2.23176e+00    5.51136e-01    5.58097e-01    5.64667e-01    5.57534e-01    1.38436e-01    1.40567e-01    1.41582e-01    1.37164e-01    2.78796e+00    9.41113e-01    6.96990e-01    5.16551e-01    6.96990e-01    2.35278e-01    1.29138e-01    1.29138e-01    2.35278e-01
    2.50000e+01    1.00000e+00   -3.90744e-03    1.89147e-04    5.02188e+00    2.23222e+00    5.51385e-01    5.58242e-01    5.64612e-01    5.57598e-01    1.38472e-01    1.40596e-01    1.41516e-01    1.37245e-01    2.78796e+00    9.41113e-01    6.96990e-01    5.16551e-01    6.96990e-01    2.35278e-01    1.29138e-01    1.29138e-01    2.35278e-01
    2.60000e+01    1.00000e+00   -3.79320e-03    2.28024e-04    5.02306e+00    2.23281e+00    5.51694e-01    5.58429e-01    5.64543e-01    5.57663e-01    1.38525e-01    1.40627e-01    1.41438e-01    1.37335e-01    2.78796e+00    9.41113e-01    6.96990e-01    5.16551e-01    6.96990e-01    2.35278e-01    1.29138e-01    1.29138e-01    2.35278e-01
    2.70000e+01    1.00000e+00   -3.64894e-03    2.76160e-04    5.02451e+00    2.23353e+00    5.52082e-01    5.58661e-01    5.64450e-01    5.57741e-01    1.38597e-01    1.40658e-01    1.41346e-01    1.37442e-01    2.78796e+00    9.41113e-01    6.96990e-01    5.16551e-01    6.96990e-01    2.35278e-01    1.29138e-01    1.29138e-01    2.35278e-01
    2.80000e+01    1.00000e+00   -3.46695e-03    3.26007e-04    5.02626e+00    2.23441e+00    5.52561e-01    5.58927e-01    5.64321e-01    5.57850e-01    1.38693e-01    1.40683e-01    1.41246e-01    1.37570e-01    2.78796e+00    9.41113e-01    6.96990e-01    5.16551e-01    6.96990e-01    2.35278e-01    1.29138e-01    1.29138e-01    2.35278e-01
    2.90000e+01    1.00000e+00   -3.24176e-03    3.72529e-04    5.02834e+00    2.23542e+00    5.53147e-01    5.59236e-01    5.64150e-01    5.58013e-01    1.38812e-01    1.40699e-01    1.41136e-01    1.37725e-01    2.78796e+00    9.41113e-01    6.96990e-01    5.16551e-01    6.96990e-01    2.35278e-01    1.29138e-01    1.29138e-01    2.35278e-01
    3.00000e+01    1.00000e+00   -2.97901e-03    4.10144e-04    5.03080e+00    2.23659e+00    5.53848e-01    5.59561e-01    5.63970e-01    5.58220e-01    1.38956e-01    1.40711e-01    1.41027e-01    1.37918e-01    2.78796e+00    9.41113e-01    6.96990e-01    5.16551e-01    6.96990e-01    2.35278e-01    1.29138e-01    1.29138e-01    2.35278e-01
    3.10000e+01    1.00000e+00   -2.68810e-03    4.19767e-04    5.03373e+00    2.23793e+00    5.54643e-01    5.59911e-01    5.63783e-01    5.58536e-01    1.39120e-01    1.40709e-01    1.40947e-01    1.38145e-01    2.78796e+00    9.41113e-01    6.96990e-01    5.16551e-01    6.96990e-01    2.35278e-01    1.29138e-01    1.29138e-01    2.35278e-01
    3.20000e+01    1.00000e+00   -2.38218e-03    4.09090e-04    5.03705e+00    2.23941e+00    5.55527e-01    5.60243e-01    5.63628e-01    5.58922e-01    1.39305e-01    1.40726e-01    1.40884e-01    1.38407e-01    2.78796e+00    9.41113e-01    6.96990e-01    5.16551e-01    6.96990e-01    2.35278e-01    1.29138e-01    1.29138e-01    2.35278e-01
    3.30000e+01    1.00000e+00   -2.06417e-03    3.85027e-04    5.04084e+00    2.24106e+00    5.56454e-01    5.60704e-01    5.63473e-01    5.59436e-01    1.39485e-01    1.40711e-01    1.40841e-01    1.38681e-01    2.78796e+00    9.41113e-01    6.96990e-01    5.16551e-01    6.96990e-01    2.35278e-01    1.29138e-01    1.29138e-01    2.35278e-01
    3.40000e+01    1.00000e+00   -1.76872e-03    2.97505e-04    5.04483e+00    2.24278e+00    5.57436e-01    5.60971e-01    5.63477e-01    5.60004e-01    1.39642e-01    1.40706e-01    1.40816e-01    1.38998e-01    2.78796e+00    9.41113e-01    6.96990e-01    5.16551e-01    6.96990e-01    2.35278e-01    1.29138e-01    1.29138e-01    2.35278e-01
    3.50000e+01    1.00000e+00   -1.47345e-03    2.44771e-04    5.04829e+00    2.24428e+00    5.58281e-01    5.61234e-01    5.63267e-01    5.60529e-01    1.39828e-01    1.40786e-01    1.40788e-01    1.39295e-01    2.78796e+00    9.41113e-01    6.96990e-01    5.16551e-01    6.96990e-01    2.35278e-01    1.29138e-01    1.29138e-01    2.35278e-01
    3.60000e+01    1.00000e+00   -1.04123e-03    2.12461e-04    5.05141e+00    2.24563e+00    5.59121e-01    5.61871e-01    5.62671e-01    5.61100e-01    1.40031e-01    1.40632e-01    1.40734e-01    1.39626e-01    2.78796e+00    9.41113e-01    6.96990e-01    5.16551e-01    6.96990e-01    2.35278e-01    1.29138e-01    1.29138e-01    2.35278e-01
    3.70000e+01    1.00000e+00   -6.87922e-04    8.72431e-05    5.05326e+00    2.24641e+00    5.60245e-01    5.61586e-01    5.62668e-01    5.61339e-01    1.40086e-01    1.40519e-01    1.40516e-01    1.39895e-01    2.78796e+00    9.41113e-01    6.96990e-01    5.16551e-01    6.96990e-01    2.35278e-01    1.29138e-01    1.29138e-01    2.35278e-01
    3.80000e+01    1.00000e+00   -4.04526e-04    1.16418e-04    5.05323e+00    2.24633e+00    5.60599e-01    5.61665e-01    5.61813e-01    5.61447e-01    1.40243e-01    1.40635e-01    1.40472e-01    1.40035e-01    2.78796e+00    9.41113e-01    6.96990e-01    5.16551e-01    6.96990e-01    2.35278e-01    1.29138e-01    1.29138e-01    2.35278e-01
    3.90000e+01    1.00000e+00    0.00000e+00    0.00000e+00    5.05216e+00    2.24570e+00    5.61032e-01    5.61748e-01    5.61032e-01    5.61314e-01    1.40297e-01    1.40370e-01    1.40297e-01    1.40370e-01    2.78796e+00    9.41113e-01    6.96990e-01    5.16551e-01    6.96990e-01    2.35278e-01    1.29138e-01    1.29138e-01    2.35278e-01
    0.00000e+00    2.00000e+00    0.00000e+00    0.00000e+00    4.95957e+00    2.20360e+00    5.51270e-01    5.50937e-01    5.51270e-01    5.50942e-01    1.38062e-01    1.37717e-01    1.38062e-01    1.37717e-01    2.78796e+00    9.41113e-01    6.96990e-01    5.16551e-01    6.96990e-01    2.35278e-01    1.29138e-01    1.29138e-01    2.35278e-01
    1.00000e+00    2.00000e+00   -3.93898e-04   -3.58317e-04    4.96058e+00    2.20398e+00    5.50703e-01    5.50589e-01    5.51970e-01    5.51799e-01    1.37617e-01    1.37870e-01    1.38244e-01    1.37810e-01    2.78796e+00    9.41113e-01    6.96990e-01    5.16551e-01    6.96990e-01    2.35278e-01    1.29138e-01    1.29138e-01    2.35278e-01
    2.00000e+00    2.00000e+00   -8.11878e-04   -4.10915e-04    4.96312e+00    2.20500e+00    5.50309e-01    5.50728e-01    5.53045e-01    5.52130e-01    1.37550e-01    1.38084e-01    1.38516e-01    1.37756e-01    2.78796e+00    9.41113e-01    6.96990e-01    5.16551e-01    6.96990e-01    2.35278e-01    1.29138e-01    1.29138e-01    2.35278e-01
    3.00000e+00    2.00000e+00   -1.33350e-03   -5.40766e-04    4.96687e+00    2.20656e+00    5.49979e-01    5.50904e-01    5.54353e-01    5.52725e-01    1.37416e-01    1.38329e-01    1.38973e-01    1.37637e-01    2.78796e+00    9.41113e-01    6.96990e-01    5.16551e-01    6.96990e-01    2.35278e-01    1.29138e-01    1.29138e-01    2.35278e-01
    4.00000e+00    2.00000e+00   -1.91576e-03   -8.11730e-04    4.97164e+00    2.20855e+00    5.49537e-01    5.50984e-01    5.55869e-01    5.53711e-01    1.37240e-01    1.38603e-01    1.39490e-01    1.37661e-01    2.78796e+00    9.41113e-01    6.96990e-01    5.16551e-01    6.96990e-01    2.35278e-01    1.29138e-01    1.29138e-01    2.35278e-01
    5.00000e+00    2.00000e+00   -2.52143e-03   -1.06335e-03    4.97741e+00    2.21101e+00    5.49145e-01    5.51225e-01    5.57514e-01    5.54832e-01    1.37066e-01    1.38933e-01    1.39999e-01    1.37686e-01    2.78796e+00    9.41113e-01    6.96990e-01    5.16551e-01    6.96990e-01    2.35278e-01    1.29138e-01    1.29138e-01    2.35278e-01