TITLE="LBM output"
VARIABLES = "X", "Y", "U","V","density","f0","f1","f2","f3","f4","f5","f6","f7","f8","feq0","feq1","feq2","feq3","feq4","feq5","feq6","feq7","feq8",
ZONE T = "fluid", I=40, J=40, F=POINT
SOLUTIONTIME=991
    0.00000e+00    0.00000e+00    0.00000e+00    0.00000e+00    5.10855e+00    2.27053e+00    5.67615e-01    5.67615e-01    5.67615e-01    5.67615e-01    1.41875e-01    1.41908e-01    1.41875e-01    1.41908e-01    2.89478e+00    9.77174e-01    7.23696e-01    5.36343e-01    7.23696e-01    2.44293e-01    1.34086e-01    1.34086e-01    2.44293e-01
    1.00000e+00    0.00000e+00    0.00000e+00    0.00000e+00    5.10831e+00    2.27042e+00    5.67644e-01    5.67553e-01    5.67593e-01    5.67553e-01    1.41872e-01    1.41902e-01    1.41872e-01    1.41902e-01    2.89478e+00    9.77174e-01    7.23696e-01    5.36343e-01    7.23696e-01    2.44293e-01    1.34086e-01    1.34086e-01    2.44293e-01
    2.00000e+00    0.00000e+00    0.00000e+00    0.00000e+00    5.10824e+00    2.27039e+00    5.67575e-01    5.67560e-01    5.67604e-01    5.67560e-01    1.41872e-01    1.41905e-01    1.41872e-01    1.41905e-01    2.89478e+00    9.77174e-01    7.23696e-01    5.36343e-01    7.23696e-01    2.44293e-01    1.34086e-01    1.34086e-01    2.44293e-01
    3.00000e+00    0.00000e+00    0.00000e+00    0.00000e+00    5.10824e+00    2.27039e+00    5.67615e-01    5.67540e-01    5.67589e-01    5.67540e-01    1.41879e-01    1.41905e-01    1.41879e-01    1.41905e-01    2.89478e+00    9.77174e-01    7.23696e-01    5.36343e-01    7.23696e-01    2.44293e-01    1.34086e-01    1.34086e-01    2.44293e-01
    4.00000e+00    0.00000e+00    0.00000e+00    0.00000e+00    5.10817e+00    2.27036e+00    5.67584e-01    5.67541e-01    5.67591e-01    5.67541e-01    1.41897e-01    1.41881e-01    1.41897e-01    1.41881e-01    2.89478e+00    9.77174e-01    7.23696e-01    5.36343e-01    7.23696e-01    2.44293e-01    1.34086e-01    1.34086e-01    2.44293e-01
    5.00000e+00    0.00000e+00    0.00000e+00    0.00000e+00    5.10817e+00    2.27036e+00    5.67594e-01    5.67537e-01    5.67587e-01    5.67537e-01    1.41916e-01    1.41862e-01    1.41916e-01    1.41862e-01    2.89478e+00    9.77174e-01    7.23696e-01    5.36343e-01    7.23696e-01    2.44293e-01    1.34086e-01    1.34086e-01    2.44293e-01
    6.00000e+00    0.00000e+00    0.00000e+00    0.00000e+00    5.10816e+00    2.27035e+00    5.67586e-01    5.67537e-01    5.67589e-01    5.67537e-01    1.41943e-01    1.41836e-01    1.41943e-01    1.41836e-01    2.89478e+00    9.77174e-01    7.23696e-01    5.36343e-01    7.23696e-01    2.44293e-01    1.34086e-01    1.34086e-01    2.44293e-01
    7.00000e+00    0.00000e+00    0.00000e+00    0.00000e+00    5.10818e+00    2.27036e+00    5.67590e-01    5.67539e-01    5.67592e-01    5.67539e-01    1.41972e-01    1.41809e-01    1.41972e-01    1.41809e-01    2.89478e+00    9.77174e-01    7.23696e-01    5.36343e-01    7.23696e-01    2.44293e-01    1.34086e-01    1.34086e-01    2.44293e-01
    8.00000e+00    0.00000e+00    0.00000e+00    0.00000e+00    5.10823e+00    2.27038e+00    5.67590e-01    5.67545e-01    5.67600e-01    5.67545e-01    1.42004e-01    1.41780e-01    1.42004e-01    1.41780e-01    2.89478e+00    9.77174e-01    7.23696e-01    5.36343e-01    7.23696e-01    2.44293e-01    1.34086e-01    1.34086e-01    2.44293e-01
    9.00000e+00    0.00000e+00    0.00000e+00    0.00000e+00    5.10832e+00    2.27042e+00    5.67598e-01    5.67555e-01    5.67611e-01    5.67555e-01    1.42038e-01    1.41752e-01    1.42038e-01    1.41752e-01    2.89478e+00    9.77174e-01    7.23696e-01    5.36343e-01    7.23696e-01    2.44293e-01    1.34086e-01    1.34086e-01    2.44293e-01
    1.00000e+01    0.00000e+00    0.00000e+00    0.00000e+00    5.10845e+00    2.27047e+00    5.67608e-01    5.67571e-01    5.67628e-01    5.67571e-01    1.42075e-01    1.41724e-01    1.42075e-01    1.41724e-01    2.89478e+00    9.77174e-01    7.23696e-01    5.36343e-01    7.23696e-01    2.44293e-01    1.34086e-01    1.34086e-01    2.44293e-01
    1.10000e+01    0.00000e+00    0.00000e+00    0.00000e+00    5.10863e+00    2.27055e+00    5.67625e-01    5.67593e-01    5.67651e-01    5.67593e-01    1.42113e-01    1.41698e-01    1.42113e-01    1.41698e-01    2.89478e+00    9.77174e-01    7.23696e-01    5.36343e-01    7.23696e-01    2.44293e-01    1.34086e-01    1.34086e-01    2.44293e-01
    1.20000e+01    0.00000e+00    0.00000e+00    0.00000e+00    5.10888e+00    2.27066e+00    5.67647e-01    5.67623e-01    5.67682e-01    5.67623e-01    1.42153e-01    1.41674e-01    1.42153e-01    1.41674e-01    2.89478e+00    9.77174e-01    7.23696e-01    5.36343e-01    7.23696e-01    2.44293e-01    1.34086e-01    1.34086e-01    2.44293e-01
    1.30000e+01    0.00000e+00    0.00000e+00    0.00000e+00    5.10921e+00    2.27080e+00    5.67677e-01    5.67662e-01    5.67722e-01    5.67662e-01    1.42194e-01    1.41652e-01    1.42194e-01    1.41652e-01    2.89478e+00    9.77174e-01    7.23696e-01    5.36343e-01    7.23696e-01    2.44293e-01    1.34086e-01    1.34086e-01    2.44293e-01
    1.40000e+01    0.00000e+00    0.00000e+00    0.00000e+00    5.10962e+00    2.27097e+00    5.67715e-01    5.67710e-01    5.67772e-01    5.67710e-01    1.42237e-01    1.41633e-01    1.42237e-01    1.41633e-01    2.89478e+00    9.77174e-01    7.23696e-01    5.36343e-01    7.23696e-01    2.44293e-01    1.34086e-01    1.34086e-01    2.44293e-01
    1.50000e+01    0.00000e+00    0.00000e+00    0.00000e+00    5.11012e+00    2.27119e+00    5.67763e-01    5.67769e-01    5.67831e-01    5.67769e-01    1.42281e-01    1.41619e-01    1.42281e-01    1.41619e-01    2.89478e+00    9.77174e-01    7.23696e-01    5.36343e-01    7.23696e-01    2.44293e-01    1.34086e-01    1.34086e-01    2.44293e-01
    1.60000e+01    0.00000e+00    0.00000e+00    0.00000e+00    5.11071e+00    2.27144e+00    5.67821e-01    5.67840e-01    5.67900e-01    5.67840e-01    1.42324e-01    1.41610e-01    1.42324e-01    1.41610e-01    2.89478e+00    9.77174e-01    7.23696e-01    5.36343e-01    7.23696e-01    2.44293e-01    1.34086e-01    1.34086e-01    2.44293e-01
    1.70000e+01    0.00000e+00    0.00000e+00    0.00000e+00    5.11140e+00    2.27174e+00    5.67889e-01    5.67921e-01    5.67980e-01    5.67921e-01    1.42367e-01    1.41607e-01    1.42367e-01    1.41607e-01    2.89478e+00    9.77174e-01    7.23696e-01    5.36343e-01    7.23696e-01    2.44293e-01    1.34086e-01    1.34086e-01    2.44293e-01
    1.80000e+01    0.00000e+00    0.00000e+00    0.00000e+00    5.11217e+00    2.27207e+00    5.67967e-01    5.68013e-01    5.68069e-01    5.68013e-01    1.42409e-01    1.41609e-01    1.42409e-01    1.41609e-01    2.89478e+00    9.77174e-01    7.23696e-01    5.36343e-01    7.23696e-01    2.44293e-01    1.34086e-01    1.34086e-01    2.44293e-01
    1.90000e+01    0.00000e+00    0.00000e+00    0.00000e+00    5.11302e+00    2.27244e+00    5.68055e-01    5.68115e-01    5.68166e-01    5.68115e-01    1.42448e-01    1.41620e-01    1.42448e-01    1.41620e-01    2.89478e+00    9.77174e-01    7.23696e-01    5.36343e-01    7.23696e-01    2.44293e-01    1.34086e-01    1.34086e-01    2.44293e-01
    2.00000e+01    0.00000e+00    0.00000e+00    0.00000e+00    5.11395e+00    2.27284e+00    5.68151e-01    5.68225e-01    5.68270e-01    5.68225e-01    1.42482e-01    1.41637e-01    1.42482e-01    1.41637e-01    2.89478e+00    9.77174e-01    7.23696e-01    5.36343e-01    7.23696e-01    2.44293e-01    1.34086e-01    1.34086e-01    2.44293e-01
    2.10000e+01    0.00000e+00    0.00000e+00    0.00000e+00    5.11493e+00    2.27326e+00    5.68254e-01    5.68341e-01    5.68378e-01    5.68341e-01    1.42513e-01    1.41662e-01    1.42513e-01    1.41662e-01    2.89478e+00    9.77174e-01    7.23696e-01    5.36343e-01    7.23696e-01    2.44293e-01    1.34086e-01    1.34086e-01    2.44293e-01
    2.20000e+01    0.00000e+00    0.00000e+00    0.00000e+00    5.11594e+00    2.27370e+00    5.68362e-01    5.68461e-01    5.68490e-01    5.68461e-01    1.42536e-01    1.41695e-01    1.42536e-01    1.41695e-01    2.89478e+00    9.77174e-01    7.23696e-01    5.36343e-01    7.23696e-01    2.44293e-01    1.34086e-01    1.34086e-01    2.44293e-01
    2.30000e+01    0.00000e+00    0.00000e+00    0.00000e+00    5.11697e+00    2.27415e+00    5.68473e-01    5.68583e-01    5.68602e-01    5.68583e-01    1.42553e-01    1.41735e-01    1.42553e-01    1.41735e-01    2.89478e+00    9.77174e-01    7.23696e-01    5.36343e-01    7.23696e-01    2.44293e-01    1.34086e-01    1.34086e-01    2.44293e-01
    2.40000e+01    0.00000e+00    0.00000e+00    0.00000e+00    5.11799e+00    2.27460e+00    5.68586e-01    5.68703e-01    5.68711e-01    5.68703e-01    1.42563e-01    1.41782e-01    1.42563e-01    1.41782e-01    2.89478e+00    9.77174e-01    7.23696e-01    5.36343e-01    7.23696e-01    2.44293e-01    1.34086e-01    1.34086e-01    2.44293e-01
    2.50000e+01    0.00000e+00    0.00000e+00    0.00000e+00    5.11898e+00    2.27503e+00    5.68696e-01    5.68819e-01    5.68818e-01    5.68819e-01    1.42565e-01    1.41834e-01    1.42565e-01    1.41834e-01    2.89478e+00    9.77174e-01    7.23696e-01    5.36343e-01    7.23696e-01    2.44293e-01    1.34086e-01    1.34086e-01    2.44293e-01
    2.60000e+01    0.00000e+00    0.00000e+00    0.00000e+00    5.11992e+00    2.27544e+00    5.68804e-01    5.68929e-01    5.68917e-01    5.68929e-01    1.42559e-01    1.41891e-01    1.42559e-01    1.41891e-01    2.89478e+00    9.77174e-01    7.23696e-01    5.36343e-01    7.23696e-01    2.44293e-01    1.34086e-01    1.34086e-01    2.44293e-01
    2.70000e+01    0.00000e+00    0.00000e+00    0.00000e+00    5.12081e+00    2.27583e+00    5.68905e-01    5.69030e-01    5.69011e-01    5.69030e-01    1.42547e-01    1.41951e-01    1.42547e-01    1.41951e-01    2.89478e+00    9.77174e-01    7.23696e-01    5.36343e-01    7.23696e-01    2.44293e-01    1.34086e-01    1.34086e-01    2.44293e-01
    2.80000e+01    0.00000e+00    0.00000e+00    0.00000e+00    5.12160e+00    2.27619e+00    5.68999e-01    5.69122e-01    5.69092e-01    5.69122e-01    1.42529e-01    1.42012e-01    1.42529e-01    1.42012e-01    2.89478e+00    9.77174e-01    7.23696e-01    5.36343e-01    7.23696e-01    2.44293e-01    1.34086e-01    1.34086e-01    2.44293e-01
    2.90000e+01    0.00000e+00    0.00000e+00    0.00000e+00    5.12232e+00    2.27650e+00    5.69083e-01    5.69201e-01    5.69169e-01    5.69201e-01    1.42506e-01    1.42073e-01    1.42506e-01    1.42073e-01    2.89478e+00    9.77174e-01    7.23696e-01    5.36343e-01    7.23696e-01    2.44293e-01    1.34086e-01    1.34086e-01    2.44293e-01
    3.00000e+01    0.00000e+00    0.00000e+00    0.00000e+00    5.12293e+00    2.27678e+00    5.69159e-01    5.69269e-01    5.69226e-01    5.69269e-01    1.42481e-01    1.42132e-01    1.42481e-01    1.42132e-01    2.89478e+00    9.77174e-01    7.23696e-01    5.36343e-01    7.23696e-01    2.44293e-01    1.34086e-01    1.34086e-01    2.44293e-01
    3.10000e+01    0.00000e+00    0.00000e+00    0.00000e+00    5.12345e+00    2.27701e+00    5.69223e-01    5.69323e-01    5.69286e-01    5.69323e-01    1.42453e-01    1.42186e-01    1.42453e-01    1.42186e-01    2.89478e+00    9.77174e-01    7.23696e-01    5.36343e-01    7.23696e-01    2.44293e-01    1.34086e-01    1.34086e-01    2.44293e-01
    3.20000e+01    0.00000e+00    0.00000e+00    0.00000e+00    5.12386e+00    2.27720e+00    5.69279e-01    5.69368e-01    5.69318e-01    5.69368e-01    1.42428e-01    1.42234e-01    1.42428e-01    1.42234e-01    2.89478e+00    9.77174e-01    7.23696e-01    5.36343e-01    7.23696e-01    2.44293e-01    1.34086e-01    1.34086e-01    2.44293e-01
    3.30000e+01    0.00000e+00    0.00000e+00    0.00000e+00    5.12419e+00    2.27736e+00    5.69319e-01    5.69396e-01    5.69364e-01    5.69396e-01    1.42404e-01    1.42276e-01    1.42404e-01    1.42276e-01    2.89478e+00    9.77174e-01    7.23696e-01    5.36343e-01    7.23696e-01    2.44293e-01    1.34086e-01    1.34086e-01    2.44293e-01
    3.40000e+01    0.00000e+00    0.00000e+00    0.00000e+00    5.12443e+00    2.27747e+00    5.69357e-01    5.69423e-01    5.69370e-01    5.69423e-01    1.42385e-01    1.42310e-01    1.42385e-01    1.42310e-01    2.89478e+00    9.77174e-01    7.23696e-01    5.36343e-01    7.23696e-01    2.44293e-01    1.34086e-01    1.34086e-01    2.44293e-01
    3.50000e+01    0.00000e+00    0.00000e+00    0.00000e+00    5.12462e+00    2.27756e+00    5.69377e-01    5.69434e-01    5.69411e-01    5.69434e-01    1.42370e-01    1.42333e-01    1.42370e-01    1.42333e-01    2.89478e+00    9.77174e-01    7.23696e-01    5.36343e-01    7.23696e-01    2.44293e-01    1.34086e-01    1.34086e-01    2.44293e-01
    3.60000e+01    0.00000e+00    0.00000e+00    0.00000e+00    5.12473e+00    2.27761e+00    5.69403e-01    5.69457e-01    5.69394e-01    5.69457e-01    1.42355e-01    1.42350e-01    1.42355e-01    1.42350e-01    2.89478e+00    9.77174e-01    7.23696e-01    5.36343e-01    7.23696e-01    2.44293e-01    1.34086e-01    1.34086e-01    2.44293e-01
    3.70000e+01    0.00000e+00    0.00000e+00    0.00000e+00    5.12481e+00    2.27765e+00    5.69405e-01    5.69444e-01    5.69435e-01    5.69444e-01    1.42355e-01    1.42361e-01    1.42355e-01    1.42361e-01    2.89478e+00    9.77174e-01    7.23696e-01    5.36343e-01    7.23696e-01    2.44293e-01    1.34086e-01    1.34086e-01    2.44293e-01
    3.80000e+01    0.00000e+00    0.00000e+00    0.00000e+00    5.12485e+00    2.27767e+00    5.69422e-01    5.69461e-01    5.69397e-01    5.69461e-01    1.42356e-01    1.42361e-01    1.42356e-01    1.42361e-01    2.89478e+00    9.77174e-01    7.23696e-01    5.36343e-01    7.23696e-01    2.44293e-01    1.34086e-01    1.34086e-01    2.44293e-01
    3.90000e+01    0.00000e+00    0.00000e+00    0.00000e+00    5.12473e+00    2.27762e+00    5.69416e-01    5.69414e-01    5.69416e-01    5.69414e-01    1.42351e-01    1.42375e-01    1.42351e-01    1.42375e-01    2.89478e+00    9.77174e-01    7.23696e-01    5.36343e-01    7.23696e-01    2.44293e-01    1.34086e-01    1.34086e-01    2.44293e-01
    0.00000e+00    1.00000e+00    0.00000e+00    0.00000e+00    5.10831e+00    2.27042e+00    5.67547e-01    5.67644e-01    5.67547e-01    5.67594e-01    1.41879e-01    1.41901e-01    1.41879e-01    1.41901e-01    2.89478e+00    9.77174e-01    7.23696e-01    5.36343e-01    7.23696e-01    2.44293e-01    1.34086e-01    1.34086e-01    2.44293e-01
    1.00000e+00    1.00000e+00    4.24472e-05    4.46917e-05    5.10830e+00    2.27042e+00    5.67651e-01    5.67645e-01    5.67516e-01    5.67500e-01    1.41933e-01    1.41895e-01    1.41851e-01    1.41895e-01    2.89478e+00    9.77174e-01    7.23696e-01    5.36343e-01    7.23696e-01    2.44293e-01    1.34086e-01    1.34086e-01    2.44293e-01
    2.00000e+00    1.00000e+00    3.93171e-05    5.50656e-05    5.10827e+00    2.27040e+00    5.67696e-01    5.67627e-01    5.67557e-01    5.67440e-01    1.41924e-01    1.41895e-01    1.41846e-01    1.41879e-01    2.89478e+00    9.77174e-01    7.23696e-01    5.36343e-01    7.23696e-01    2.44293e-01    1.34086e-01    1.34086e-01    2.44293e-01
    3.00000e+00    1.00000e+00    1.93096e-06    7.56322e-05    5.10823e+00    2.27038e+00    5.67645e-01    5.67642e-01    5.67638e-01    5.67376e-01    1.41921e-01    1.41910e-01    1.41859e-01    1.41851e-01    2.89478e+00    9.77174e-01    7.23696e-01    5.36343e-01    7.23696e-01    2.44293e-01    1.34086e-01    1.34086e-01    2.44293e-01
    4.00000e+00    1.00000e+00   -5.96280e-05    8.59731e-05    5.10820e+00    2.27037e+00    5.67564e-01    5.67628e-01    5.67765e-01    5.67327e-01    1.41915e-01    1.41925e-01    1.41898e-01    1.41804e-01    2.89478e+00    9.77174e-01    7.23696e-01    5.36343e-01    7.23696e-01    2.44293e-01    1.34086e-01    1.34086e-01    2.44293e-01
    5.00000e+00    1.00000e+00   -1.42285e-04    9.35940e-05    5.10819e+00    2.27037e+00    5.67435e-01    5.67630e-01    5.67919e-01    5.67299e-01    1.41898e-01    1.41945e-01    1.41946e-01    1.41750e-01    2.89478e+00    9.77174e-01    7.23696e-01    5.36343e-01    7.23696e-01    2.44293e-01    1.34086e-01    1.34086e-01    2.44293e-01
    6.00000e+00    1.00000e+00   -2.39441e-04    1.00121e-04    5.10819e+00    2.27037e+00    5.67284e-01    5.67628e-01    5.68098e-01    5.67273e-01    1.41883e-01    1.41966e-01    1.42009e-01    1.41683e-01    2.89478e+00    9.77174e-01    7.23696e-01    5.36343e-01    7.23696e-01    2.44293e-01    1.34086e-01    1.34086e-01    2.44293e-01
    7.00000e+00    1.00000e+00   -3.47672e-04    1.03393e-04    5.10821e+00    2.27037e+00    5.67109e-01    5.67631e-01    5.68292e-01    5.67263e-01    1.41861e-01    1.41991e-01    1.42078e-01    1.41614e-01    2.89478e+00    9.77174e-01    7.23696e-01    5.36343e-01    7.23696e-01    2.44293e-01    1.34086e-01    1.34086e-01    2.44293e-01
    8.00000e+00    1.00000e+00   -4.62191e-04    1.04477e-04    5.10827e+00    2.27040e+00    5.66925e-01    5.67635e-01    5.68498e-01    5.67263e-01    1.41840e-01    1.42017e-01    1.42153e-01    1.41542e-01    2.89478e+00    9.77174e-01    7.23696e-01    5.36343e-01    7.23696e-01    2.44293e-01    1.34086e-01    1.34086e-01    2.44293e-01
    9.00000e+00    1.00000e+00   -5.80151e-04    1.03516e-04    5.10836e+00    2.27043e+00    5.66735e-01    5.67643e-01    5.68711e-01    5.67274e-01    1.41817e-01    1.42044e-01    1.42231e-01    1.41470e-01    2.89478e+00    9.77174e-01    7.23696e-01    5.36343e-01    7.23696e-01    2.44293e-01    1.34086e-01    1.34086e-01    2.44293e-01
    1.00000e+01    1.00000e+00   -6.99473e-04    1.01611e-04    5.10849e+00    2.27049e+00    5.66546e-01    5.67656e-01    5.68929e-01    5.67293e-01    1.41796e-01    1.42073e-01    1.42313e-01    1.41400e-01    2.89478e+00    9.77174e-01    7.23696e-01    5.36343e-01    7.23696e-01    2.44293e-01    1.34086e-01    1.34086e-01    2.44293e-01
    1.10000e+01    1.00000e+00   -8.18302e-04    9.80869e-05    5.10868e+00    2.27057e+00    5.66362e-01    5.67675e-01    5.69151e-01    5.67323e-01    1.41774e-01    1.42103e-01    1.42395e-01    1.41332e-01    2.89478e+00    9.77174e-01    7.23696e-01    5.36343e-01    7.23696e-01    2.44293e-01    1.34086e-01    1.34086e-01    2.44293e-01
    1.20000e+01    1.00000e+00   -9.34944e-04    9.28721e-05    5.10894e+00    2.27068e+00    5.66188e-01    5.67699e-01    5.69375e-01    5.67366e-01    1.41754e-01    1.42134e-01    1.42478e-01    1.41269e-01    2.89478e+00    9.77174e-01    7.23696e-01    5.36343e-01    7.23696e-01    2.44293e-01    1.34086e-01    1.34086e-01    2.44293e-01
    1.30000e+01    1.00000e+00   -1.04767e-03    8.61467e-05    5.10927e+00    2.27082e+00    5.66026e-01    5.67731e-01    5.69598e-01    5.67421e-01    1.41735e-01    1.42167e-01    1.42560e-01    1.41212e-01    2.89478e+00    9.77174e-01    7.23696e-01    5.36343e-01    7.23696e-01    2.44293e-01    1.34086e-01    1.34086e-01    2.44293e-01
    1.40000e+01    1.00000e+00   -1.15440e-03    7.79149e-05    5.10968e+00    2.27099e+00    5.65881e-01    5.67771e-01    5.69818e-01    5.67490e-01    1.41720e-01    1.42201e-01    1.42642e-01    1.41162e-01    2.89478e+00    9.77174e-01    7.23696e-01    5.36343e-01    7.23696e-01    2.44293e-01    1.34086e-01    1.34086e-01    2.44293e-01
    1.50000e+01    1.00000e+00   -1.25293e-03    6.71851e-05    5.11017e+00    2.27120e+00    5.65757e-01    5.67821e-01    5.70032e-01    5.67577e-01    1.41707e-01    1.42235e-01    1.42721e-01    1.41121e-01    2.89478e+00    9.77174e-01    7.23696e-01    5.36343e-01    7.23696e-01    2.44293e-01    1.34086e-01    1.34086e-01    2.44293e-01
    1.60000e+01    1.00000e+00   -1.34080e-03    5.43786e-05    5.11076e+00    2.27146e+00    5.65659e-01    5.67879e-01    5.70235e-01    5.67680e-01    1.41698e-01    1.42269e-01    1.42797e-01    1.41091e-01    2.89478e+00    9.77174e-01    7.23696e-01    5.36343e-01    7.23696e-01    2.44293e-01    1.34086e-01    1.34086e-01    2.44293e-01
    1.70000e+01    1.00000e+00   -1.41523e-03    3.98192e-05    5.11144e+00    2.27175e+00    5.65590e-01    5.67946e-01    5.70422e-01    5.67798e-01    1.41694e-01    1.42303e-01    1.42868e-01    1.41074e-01    2.89478e+00    9.77174e-01    7.23696e-01    5.36343e-01    7.23696e-01    2.44293e-01    1.34086e-01    1.34086e-01    2.44293e-01
    1.80000e+01    1.00000e+00   -1.47344e-03    2.28330e-05    5.11221e+00    2.27208e+00    5.65556e-01    5.68023e-01    5.70588e-01    5.67934e-01    1.41695e-01    1.42334e-01    1.42931e-01    1.41070e-01    2.89478e+00    9.77174e-01    7.23696e-01    5.36343e-01    7.23696e-01    2.44293e-01    1.34086e-01    1.34086e-01    2.44293e-01
    1.90000e+01    1.00000e+00   -1.51277e-03    3.53611e-06    5.11306e+00    2.27244e+00    5.65560e-01    5.68107e-01    5.70728e-01    5.68087e-01    1.41700e-01    1.42364e-01    1.42984e-01    1.41081e-01    2.89478e+00    9.77174e-01    7.23696e-01    5.36343e-01    7.23696e-01    2.44293e-01    1.34086e-01    1.34086e-01    2.44293e-01
    2.00000e+01    1.00000e+00   -1.53062e-03   -1.66865e-05    5.11397e+00    2.27284e+00    5.65606e-01    5.68198e-01    5.70837e-01    5.68250e-01    1.41712e-01    1.42391e-01    1.43028e-01    1.41109e-01    2.89478e+00    9.77174e-01    7.23696e-01    5.36343e-01    7.23696e-01    2.44293e-01    1.34086e-01    1.34086e-01    2.44293e-01
    2.10000e+01    1.00000e+00   -1.52498e-03   -3.79802e-05    5.11493e+00    2.27326e+00    5.65696e-01    5.68296e-01    5.70909e-01    5.68423e-01    1.41730e-01    1.42413e-01    1.43058e-01    1.41153e-01    2.89478e+00    9.77174e-01    7.23696e-01    5.36343e-01    7.23696e-01    2.44293e-01    1.34086e-01    1.34086e-01    2.44293e-01
    2.20000e+01    1.00000e+00   -1.49459e-03   -6.02238e-05    5.11593e+00    2.27369e+00    5.65831e-01    5.68396e-01    5.70942e-01    5.68603e-01    1.41754e-01    1.42431e-01    1.43072e-01    1.41214e-01    2.89478e+00    9.77174e-01    7.23696e-01    5.36343e-01    7.23696e-01    2.44293e-01    1.34086e-01    1.34086e-01    2.44293e-01
    2.30000e+01    1.00000e+00   -1.43888e-03   -8.14543e-05    5.11695e+00    2.27413e+00    5.66011e-01    5.68499e-01    5.70934e-01    5.68782e-01    1.41784e-01    1.42444e-01    1.43072e-01    1.41291e-01    2.89478e+00    9.77174e-01    7.23696e-01    5.36343e-01    7.23696e-01    2.44293e-01    1.34086e-01    1.34086e-01    2.44293e-01
    2.40000e+01    1.00000e+00   -1.35842e-03   -1.00999e-04    5.11796e+00    2.27457e+00    5.66234e-01    5.68602e-01    5.70883e-01    5.68955e-01    1.41821e-01    1.42452e-01    1.43055e-01    1.41383e-01    2.89478e+00    9.77174e-01    7.23696e-01    5.36343e-01    7.23696e-01    2.44293e-01    1.34086e-01    1.34086e-01    2.44293e-01
    2.50000e+01    1.00000e+00   -1.25503e-03   -1.18755e-04    5.11894e+00    2.27500e+00    5.66496e-01    5.68704e-01    5.70794e-01    5.69121e-01    1.41862e-01    1.42454e-01    1.43021e-01    1.41486e-01    2.89478e+00    9.77174e-01    7.23696e-01    5.36343e-01    7.23696e-01    2.44293e-01    1.34086e-01    1.34086e-01    2.44293e-01
    2.60000e+01    1.00000e+00   -1.13167e-03   -1.33204e-04    5.11987e+00    2.27541e+00    5.66791e-01    5.68802e-01    5.70668e-01    5.69271e-01    1.41907e-01    1.42451e-01    1.42972e-01    1.41599e-01    2.89478e+00    9.77174e-01    7.23696e-01    5.36343e-01    7.23696e-01    2.44293e-01    1.34086e-01    1.34086e-01    2.44293e-01
    2.70000e+01    1.00000e+00   -9.92425e-04   -1.42984e-04    5.12074e+00    2.27580e+00    5.67111e-01    5.68895e-01    5.70513e-01    5.69400e-01    1.41957e-01    1.42444e-01    1.42910e-01    1.41718e-01    2.89478e+00    9.77174e-01    7.23696e-01    5.36343e-01    7.23696e-01    2.44293e-01    1.34086e-01    1.34086e-01    2.44293e-01
    2.80000e+01    1.00000e+00   -8.42444e-04   -1.48904e-04    5.12154e+00    2.27615e+00    5.67447e-01    5.68980e-01    5.70337e-01    5.69507e-01    1.42008e-01    1.42434e-01    1.42839e-01    1.41840e-01    2.89478e+00    9.77174e-01    7.23696e-01    5.36343e-01    7.23696e-01    2.44293e-01    1.34086e-01    1.34086e-01    2.44293e-01
    2.90000e+01    1.00000e+00   -6.87538e-04   -1.49659e-04    5.12225e+00    2.27646e+00    5.67788e-01    5.69060e-01    5.70149e-01    5.69590e-01    1.42060e-01    1.42420e-01    1.42759e-01    1.41958e-01    2.89478e+00    9.77174e-01    7.23696e-01    5.36343e-01    7.23696e-01    2.44293e-01    1.34086e-01    1.34086e-01    2.44293e-01
    3.00000e+01    1.00000e+00   -5.34305e-04   -1.45519e-04    5.12286e+00    2.27674e+00    5.68124e-01    5.69129e-01    5.69961e-01    5.69644e-01    1.42112e-01    1.42405e-01    1.42677e-01    1.42070e-01    2.89478e+00    9.77174e-01    7.23696e-01    5.36343e-01    7.23696e-01    2.44293e-01    1.34086e-01    1.34086e-01    2.44293e-01
    3.10000e+01    1.00000e+00   -3.89140e-04   -1.36311e-04    5.12338e+00    2.27698e+00    5.68441e-01    5.69191e-01    5.69782e-01    5.69674e-01    1.42160e-01    1.42390e-01    1.42595e-01    1.42172e-01    2.89478e+00    9.77174e-01    7.23696e-01    5.36343e-01    7.23696e-01    2.44293e-01    1.34086e-01    1.34086e-01    2.44293e-01
    3.20000e+01    1.00000e+00   -2.57825e-04   -1.24249e-04    5.12381e+00    2.27717e+00    5.68730e-01    5.69241e-01    5.69621e-01    5.69680e-01    1.42207e-01    1.42376e-01    1.42521e-01    1.42259e-01    2.89478e+00    9.77174e-01    7.23696e-01    5.36343e-01    7.23696e-01    2.44293e-01    1.34086e-01    1.34086e-01    2.44293e-01
    3.30000e+01    1.00000e+00   -1.46001e-04   -1.06835e-04    5.12415e+00    2.27733e+00    5.68982e-01    5.69289e-01    5.69490e-01    5.69666e-01    1.42247e-01    1.42363e-01    1.42452e-01    1.42328e-01    2.89478e+00    9.77174e-01    7.23696e-01    5.36343e-01    7.23696e-01    2.44293e-01    1.34086e-01    1.34086e-01    2.44293e-01
    3.40000e+01    1.00000e+00   -6.02925e-05   -8.77803e-05    5.12440e+00    2.27745e+00    5.69188e-01    5.69318e-01    5.69403e-01    5.69628e-01    1.42282e-01    1.42357e-01    1.42399e-01    1.42379e-01    2.89478e+00    9.77174e-01    7.23696e-01    5.36343e-01    7.23696e-01    2.44293e-01    1.34086e-01    1.34086e-01    2.44293e-01
    3.50000e+01    1.00000e+00   -1.66949e-06   -6.80585e-05    5.12460e+00    2.27754e+00    5.69335e-01    5.69352e-01    5.69348e-01    5.69589e-01    1.42309e-01    1.42350e-01    1.42362e-01    1.42408e-01    2.89478e+00    9.77174e-01    7.23696e-01    5.36343e-01    7.23696e-01    2.44293e-01    1.34086e-01    1.34086e-01    2.44293e-01
    3.60000e+01    1.00000e+00    3.02073e-05   -5.52308e-05    5.12473e+00    2.27761e+00    5.69434e-01    5.69357e-01    5.69336e-01    5.69548e-01    1.42330e-01    1.42346e-01    1.42347e-01    1.42420e-01    2.89478e+00    9.77174e-01    7.23696e-01    5.36343e-01    7.23696e-01    2.44293e-01    1.34086e-01    1.34086e-01    2.44293e-01
    3.70000e+01    1.00000e+00    3.99258e-05   -3.29532e-05    5.12481e+00    2.27765e+00    5.69477e-01    5.69387e-01    5.69342e-01    5.69499e-01    1.42348e-01    1.42350e-01    1.42342e-01    1.42413e-01    2.89478e+00    9.77174e-01    7.23696e-01    5.36343e-01    7.23696e-01    2.44293e-01    1.34086e-01    1.34086e-01    2.44293e-01
    3.80000e+01    1.00000e+00    2.99018e-05   -3.24281e-05    5.12484e+00    2.27767e+00    5.69488e-01    5.69382e-01    5.69389e-01    5.69488e-01    1.42352e-01    1.42332e-01    1.42355e-01    1.42389e-01    2.89478e+00    9.77174e-01    7.23696e-01    5.36343e-01    7.23696e-01    2.44293e-01    1.34086e-01    1.34086e-01    2.44293e-01
    3.90000e+01    1.00000e+00    0.00000e+00    0.00000e+00    5.12485e+00    2.27767e+00    5.69453e-01    5.69398e-01    5.69453e-01    5.69423e-01    1.42353e-01    1.42372e-01    1.42353e-01    1.42372e-01    2.89478e+00    9.77174e-01    7.23696e-01    5.36343e-01    7.23696e-01    2.44293e-01    1.34086e-01    1.34086e-01    2.44293e-01
    0.00000e+00    2.00000e+00    0.00000e+00    0.00000e+00    5.10826e+00    2.27040e+00    5.67561e-01    5.67576e-01    5.67561e-01    5.67607e-01    1.41870e-01    1.41907e-01    1.41870e-01    1.41907e-01    2.89478e+00    9.77174e-01    7.23696e-01    5.36343e-01    7.23696e-01    2.44293e-01    1.34086e-01    1.34086e-01    2.44293e-01
    1.00000e+00    2.00000e+00    2.80602e-05    7.52925e-05    5.10827e+00    2.27040e+00    5.67629e-01    5.67705e-01    5.67544e-01    5.67443e-01    1.41919e-01    1.41915e-01    1.41829e-01    1.41883e-01    2.89478e+00    9.77174e-01    7.23696e-01    5.36343e-01    7.23696e-01    2.44293e-01    1.34086e-01    1.34086e-01    2.44293e-01
    2.00000e+00    2.00000e+00    9.80277e-06    1.37437e-04    5.10824e+00    2.27039e+00    5.67663e-01    5.67743e-01    5.67628e-01    5.67270e-01    1.41941e-01    1.41945e-01    1.41820e-01    1.41838e-01    2.89478e+00    9.77174e-01    7.23696e-01    5.36343e-01    7.23696e-01    2.44293e-01    1.34086e-01    1.34086e-01    2.44293e-01
    3.00000e+00    2.00000e+00   -6.58490e-05    1.95972e-04    5.10821e+00    2.27038e+00    5.67576e-01    5.67787e-01    5.67805e-01    5.67117e-01    1.41952e-01    1.41987e-01    1.41841e-01    1.41767e-01    2.89478e+00    9.77174e-01    7.23696e-01    5.36343e-01    7.23696e-01    2.44293e-01    1.34086e-01    1.34086e-01    2.44293e-01
    4.00000e+00    2.00000e+00   -1.89036e-04    2.42713e-04    5.10820e+00    2.27037e+00    5.67409e-01    5.67824e-01    5.68052e-01    5.66995e-01    1.41940e-01    1.42039e-01    1.41896e-01    1.41672e-01    2.89478e+00    9.77174e-01    7.23696e-01    5.36343e-01    7.23696e-01    2.44293e-01    1.34086e-01    1.34086e-01    2.44293e-01
    5.00000e+00    2.00000e+00   -3.49584e-04    2.72730e-04    5.10819e+00    2.27036e+00    5.67165e-01    5.67843e-01    5.68354e-01    5.66911e-01    1.41905e-01    1.42100e-01    1.41972e-01    1.41572e-01    2.89478e+00    9.77174e-01    7.23696e-01    5.36343e-01    7.23696e-01    2.44293e-01    1.34086e-01    1.34086e-01    2.44293e-01