TITLE="LBM output"
VARIABLES = "X", "Y", "U","V","density","f0","f1","f2","f3","f4","f5","f6","f7","f8","feq0","feq1","feq2","feq3","feq4","feq5","feq6","feq7","feq8",
ZONE T = "fluid", I=40, J=40, F=POINT
SOLUTIONTIME=457
    0.00000e+00    0.00000e+00    0.00000e+00    0.00000e+00    5.02762e+00    2.23482e+00    5.58616e-01    5.58613e-01    5.58616e-01    5.58613e-01    1.39497e-01    1.39676e-01    1.39497e-01    1.39676e-01    2.86779e+00    9.68060e-01    7.16947e-01    5.31341e-01    7.16947e-01    2.42015e-01    1.32835e-01    1.32835e-01    2.42015e-01
    1.00000e+00    0.00000e+00    0.00000e+00    0.00000e+00    5.02638e+00    2.23426e+00    5.58773e-01    5.58283e-01    5.58503e-01    5.58283e-01    1.39492e-01    1.39646e-01    1.39492e-01    1.39646e-01    2.86779e+00    9.68060e-01    7.16947e-01    5.31341e-01    7.16947e-01    2.42015e-01    1.32835e-01    1.32835e-01    2.42015e-01
    2.00000e+00    0.00000e+00    0.00000e+00    0.00000e+00    5.02609e+00    2.23413e+00    5.58403e-01    5.58350e-01    5.58571e-01    5.58350e-01    1.39472e-01    1.39674e-01    1.39472e-01    1.39674e-01    2.86779e+00    9.68060e-01    7.16947e-01    5.31341e-01    7.16947e-01    2.42015e-01    1.32835e-01    1.32835e-01    2.42015e-01
    3.00000e+00    0.00000e+00    0.00000e+00    0.00000e+00    5.02610e+00    2.23412e+00    5.58631e-01    5.58247e-01    5.58481e-01    5.58247e-01    1.39463e-01    1.39723e-01    1.39463e-01    1.39723e-01    2.86779e+00    9.68060e-01    7.16947e-01    5.31341e-01    7.16947e-01    2.42015e-01    1.32835e-01    1.32835e-01    2.42015e-01
    4.00000e+00    0.00000e+00    0.00000e+00    0.00000e+00    5.02569e+00    2.23393e+00    5.58448e-01    5.58275e-01    5.58485e-01    5.58275e-01    1.39469e-01    1.39673e-01    1.39469e-01    1.39673e-01    2.86779e+00    9.68060e-01    7.16947e-01    5.31341e-01    7.16947e-01    2.42015e-01    1.32835e-01    1.32835e-01    2.42015e-01
    5.00000e+00    0.00000e+00    0.00000e+00    0.00000e+00    5.02560e+00    2.23387e+00    5.58505e-01    5.58253e-01    5.58448e-01    5.58253e-01    1.39462e-01    1.39675e-01    1.39462e-01    1.39675e-01    2.86779e+00    9.68060e-01    7.16947e-01    5.31341e-01    7.16947e-01    2.42015e-01    1.32835e-01    1.32835e-01    2.42015e-01
    6.00000e+00    0.00000e+00    0.00000e+00    0.00000e+00    5.02544e+00    2.23378e+00    5.58434e-01    5.58251e-01    5.58445e-01    5.58251e-01    1.39478e-01    1.39662e-01    1.39478e-01    1.39662e-01    2.86779e+00    9.68060e-01    7.16947e-01    5.31341e-01    7.16947e-01    2.42015e-01    1.32835e-01    1.32835e-01    2.42015e-01
    7.00000e+00    0.00000e+00    0.00000e+00    0.00000e+00    5.02548e+00    2.23378e+00    5.58452e-01    5.58249e-01    5.58447e-01    5.58249e-01    1.39503e-01    1.39649e-01    1.39503e-01    1.39649e-01    2.86779e+00    9.68060e-01    7.16947e-01    5.31341e-01    7.16947e-01    2.42015e-01    1.32835e-01    1.32835e-01    2.42015e-01
    8.00000e+00    0.00000e+00    0.00000e+00    0.00000e+00    5.02567e+00    2.23384e+00    5.58436e-01    5.58279e-01    5.58483e-01    5.58279e-01    1.39539e-01    1.39636e-01    1.39539e-01    1.39636e-01    2.86779e+00    9.68060e-01    7.16947e-01    5.31341e-01    7.16947e-01    2.42015e-01    1.32835e-01    1.32835e-01    2.42015e-01
    9.00000e+00    0.00000e+00    0.00000e+00    0.00000e+00    5.02613e+00    2.23403e+00    5.58478e-01    5.58334e-01    5.58542e-01    5.58334e-01    1.39587e-01    1.39620e-01    1.39587e-01    1.39620e-01    2.86779e+00    9.68060e-01    7.16947e-01    5.31341e-01    7.16947e-01    2.42015e-01    1.32835e-01    1.32835e-01    2.42015e-01
    1.00000e+01    0.00000e+00    0.00000e+00    0.00000e+00    5.02687e+00    2.23433e+00    5.58526e-01    5.58425e-01    5.58641e-01    5.58425e-01    1.39650e-01    1.39608e-01    1.39650e-01    1.39608e-01    2.86779e+00    9.68060e-01    7.16947e-01    5.31341e-01    7.16947e-01    2.42015e-01    1.32835e-01    1.32835e-01    2.42015e-01
    1.10000e+01    0.00000e+00    0.00000e+00    0.00000e+00    5.02796e+00    2.23479e+00    5.58624e-01    5.58552e-01    5.58777e-01    5.58552e-01    1.39726e-01    1.39602e-01    1.39726e-01    1.39602e-01    2.86779e+00    9.68060e-01    7.16947e-01    5.31341e-01    7.16947e-01    2.42015e-01    1.32835e-01    1.32835e-01    2.42015e-01
    1.20000e+01    0.00000e+00    0.00000e+00    0.00000e+00    5.02942e+00    2.23542e+00    5.58752e-01    5.58726e-01    5.58960e-01    5.58726e-01    1.39817e-01    1.39601e-01    1.39817e-01    1.39601e-01    2.86779e+00    9.68060e-01    7.16947e-01    5.31341e-01    7.16947e-01    2.42015e-01    1.32835e-01    1.32835e-01    2.42015e-01
    1.30000e+01    0.00000e+00    0.00000e+00    0.00000e+00    5.03130e+00    2.23623e+00    5.58931e-01    5.58946e-01    5.59187e-01    5.58946e-01    1.39920e-01    1.39609e-01    1.39920e-01    1.39609e-01    2.86779e+00    9.68060e-01    7.16947e-01    5.31341e-01    7.16947e-01    2.42015e-01    1.32835e-01    1.32835e-01    2.42015e-01
    1.40000e+01    0.00000e+00    0.00000e+00    0.00000e+00    5.03359e+00    2.23722e+00    5.59152e-01    5.59213e-01    5.59462e-01    5.59213e-01    1.40036e-01    1.39626e-01    1.40036e-01    1.39626e-01    2.86779e+00    9.68060e-01    7.16947e-01    5.31341e-01    7.16947e-01    2.42015e-01    1.32835e-01    1.32835e-01    2.42015e-01
    1.50000e+01    0.00000e+00    0.00000e+00    0.00000e+00    5.03628e+00    2.23840e+00    5.59421e-01    5.59526e-01    5.59779e-01    5.59526e-01    1.40160e-01    1.39654e-01    1.40160e-01    1.39654e-01    2.86779e+00    9.68060e-01    7.16947e-01    5.31341e-01    7.16947e-01    2.42015e-01    1.32835e-01    1.32835e-01    2.42015e-01
    1.60000e+01    0.00000e+00    0.00000e+00    0.00000e+00    5.03933e+00    2.23973e+00    5.59734e-01    5.59879e-01    5.60135e-01    5.59879e-01    1.40288e-01    1.39695e-01    1.40288e-01    1.39695e-01    2.86779e+00    9.68060e-01    7.16947e-01    5.31341e-01    7.16947e-01    2.42015e-01    1.32835e-01    1.32835e-01    2.42015e-01
    1.70000e+01    0.00000e+00    0.00000e+00    0.00000e+00    5.04268e+00    2.24121e+00    5.60086e-01    5.60266e-01    5.60519e-01    5.60266e-01    1.40416e-01    1.39749e-01    1.40416e-01    1.39749e-01    2.86779e+00    9.68060e-01    7.16947e-01    5.31341e-01    7.16947e-01    2.42015e-01    1.32835e-01    1.32835e-01    2.42015e-01
    1.80000e+01    0.00000e+00    0.00000e+00    0.00000e+00    5.04623e+00    2.24278e+00    5.60469e-01    5.60675e-01    5.60922e-01    5.60675e-01    1.40539e-01    1.39817e-01    1.40539e-01    1.39817e-01    2.86779e+00    9.68060e-01    7.16947e-01    5.31341e-01    7.16947e-01    2.42015e-01    1.32835e-01    1.32835e-01    2.42015e-01
    1.90000e+01    0.00000e+00    0.00000e+00    0.00000e+00    5.04988e+00    2.24440e+00    5.60870e-01    5.61095e-01    5.61328e-01    5.61095e-01    1.40650e-01    1.39899e-01    1.40650e-01    1.39899e-01    2.86779e+00    9.68060e-01    7.16947e-01    5.31341e-01    7.16947e-01    2.42015e-01    1.32835e-01    1.32835e-01    2.42015e-01
    2.00000e+01    0.00000e+00    0.00000e+00    0.00000e+00    5.05352e+00    2.24601e+00    5.61278e-01    5.61513e-01    5.61726e-01    5.61513e-01    1.40746e-01    1.39994e-01    1.40746e-01    1.39994e-01    2.86779e+00    9.68060e-01    7.16947e-01    5.31341e-01    7.16947e-01    2.42015e-01    1.32835e-01    1.32835e-01    2.42015e-01
    2.10000e+01    0.00000e+00    0.00000e+00    0.00000e+00    5.05701e+00    2.24756e+00    5.61677e-01    5.61915e-01    5.62101e-01    5.61915e-01    1.40825e-01    1.40099e-01    1.40825e-01    1.40099e-01    2.86779e+00    9.68060e-01    7.16947e-01    5.31341e-01    7.16947e-01    2.42015e-01    1.32835e-01    1.32835e-01    2.42015e-01
    2.20000e+01    0.00000e+00    0.00000e+00    0.00000e+00    5.06026e+00    2.24900e+00    5.62055e-01    5.62290e-01    5.62441e-01    5.62290e-01    1.40884e-01    1.40212e-01    1.40884e-01    1.40212e-01    2.86779e+00    9.68060e-01    7.16947e-01    5.31341e-01    7.16947e-01    2.42015e-01    1.32835e-01    1.32835e-01    2.42015e-01
    2.30000e+01    0.00000e+00    0.00000e+00    0.00000e+00    5.06318e+00    2.25028e+00    5.62399e-01    5.62628e-01    5.62739e-01    5.62628e-01    1.40923e-01    1.40331e-01    1.40923e-01    1.40331e-01    2.86779e+00    9.68060e-01    7.16947e-01    5.31341e-01    7.16947e-01    2.42015e-01    1.32835e-01    1.32835e-01    2.42015e-01
    2.40000e+01    0.00000e+00    0.00000e+00    0.00000e+00    5.06570e+00    2.25138e+00    5.62701e-01    5.62924e-01    5.62987e-01    5.62924e-01    1.40945e-01    1.40449e-01    1.40945e-01    1.40449e-01    2.86779e+00    9.68060e-01    7.16947e-01    5.31341e-01    7.16947e-01    2.42015e-01    1.32835e-01    1.32835e-01    2.42015e-01
    2.50000e+01    0.00000e+00    0.00000e+00    0.00000e+00    5.06779e+00    2.25228e+00    5.62953e-01    5.63171e-01    5.63184e-01    5.63171e-01    1.40953e-01    1.40562e-01    1.40953e-01    1.40562e-01    2.86779e+00    9.68060e-01    7.16947e-01    5.31341e-01    7.16947e-01    2.42015e-01    1.32835e-01    1.32835e-01    2.42015e-01
    2.60000e+01    0.00000e+00    0.00000e+00    0.00000e+00    5.06943e+00    2.25298e+00    5.63155e-01    5.63370e-01    5.63329e-01    5.63370e-01    1.40949e-01    1.40668e-01    1.40949e-01    1.40668e-01    2.86779e+00    9.68060e-01    7.16947e-01    5.31341e-01    7.16947e-01    2.42015e-01    1.32835e-01    1.32835e-01    2.42015e-01
    2.70000e+01    0.00000e+00    0.00000e+00    0.00000e+00    5.07065e+00    2.25348e+00    5.63306e-01    5.63520e-01    5.63430e-01    5.63520e-01    1.40937e-01    1.40762e-01    1.40937e-01    1.40762e-01    2.86779e+00    9.68060e-01    7.16947e-01    5.31341e-01    7.16947e-01    2.42015e-01    1.32835e-01    1.32835e-01    2.42015e-01
    2.80000e+01    0.00000e+00    0.00000e+00    0.00000e+00    5.07146e+00    2.25380e+00    5.63411e-01    5.63624e-01    5.63485e-01    5.63624e-01    1.40919e-01    1.40841e-01    1.40919e-01    1.40841e-01    2.86779e+00    9.68060e-01    7.16947e-01    5.31341e-01    7.16947e-01    2.42015e-01    1.32835e-01    1.32835e-01    2.42015e-01
    2.90000e+01    0.00000e+00    0.00000e+00    0.00000e+00    5.07193e+00    2.25397e+00    5.63473e-01    5.63686e-01    5.63511e-01    5.63686e-01    1.40898e-01    1.40903e-01    1.40898e-01    1.40903e-01    2.86779e+00    9.68060e-01    7.16947e-01    5.31341e-01    7.16947e-01    2.42015e-01    1.32835e-01    1.32835e-01    2.42015e-01
    3.00000e+01    0.00000e+00    0.00000e+00    0.00000e+00    5.07210e+00    2.25402e+00    5.63502e-01    5.63714e-01    5.63501e-01    5.63714e-01    1.40875e-01    1.40951e-01    1.40875e-01    1.40951e-01    2.86779e+00    9.68060e-01    7.16947e-01    5.31341e-01    7.16947e-01    2.42015e-01    1.32835e-01    1.32835e-01    2.42015e-01
    3.10000e+01    0.00000e+00    0.00000e+00    0.00000e+00    5.07206e+00    2.25397e+00    5.63501e-01    5.63713e-01    5.63488e-01    5.63713e-01    1.40850e-01    1.40982e-01    1.40850e-01    1.40982e-01    2.86779e+00    9.68060e-01    7.16947e-01    5.31341e-01    7.16947e-01    2.42015e-01    1.32835e-01    1.32835e-01    2.42015e-01
    3.20000e+01    0.00000e+00    0.00000e+00    0.00000e+00    5.07183e+00    2.25386e+00    5.63484e-01    5.63692e-01    5.63436e-01    5.63692e-01    1.40830e-01    1.41001e-01    1.40830e-01    1.41001e-01    2.86779e+00    9.68060e-01    7.16947e-01    5.31341e-01    7.16947e-01    2.42015e-01    1.32835e-01    1.32835e-01    2.42015e-01
    3.30000e+01    0.00000e+00    0.00000e+00    0.00000e+00    5.07153e+00    2.25372e+00    5.63448e-01    5.63647e-01    5.63424e-01    5.63647e-01    1.40811e-01    1.41010e-01    1.40811e-01    1.41010e-01    2.86779e+00    9.68060e-01    7.16947e-01    5.31341e-01    7.16947e-01    2.42015e-01    1.32835e-01    1.32835e-01    2.42015e-01
    3.40000e+01    0.00000e+00    0.00000e+00    0.00000e+00    5.07110e+00    2.25353e+00    5.63416e-01    5.63609e-01    5.63327e-01    5.63609e-01    1.40792e-01    1.41013e-01    1.40792e-01    1.41013e-01    2.86779e+00    9.68060e-01    7.16947e-01    5.31341e-01    7.16947e-01    2.42015e-01    1.32835e-01    1.32835e-01    2.42015e-01
    3.50000e+01    0.00000e+00    0.00000e+00    0.00000e+00    5.07086e+00    2.25343e+00    5.63358e-01    5.63558e-01    5.63392e-01    5.63558e-01    1.40789e-01    1.40992e-01    1.40789e-01    1.40992e-01    2.86779e+00    9.68060e-01    7.16947e-01    5.31341e-01    7.16947e-01    2.42015e-01    1.32835e-01    1.32835e-01    2.42015e-01
    3.60000e+01    0.00000e+00    0.00000e+00    0.00000e+00    5.07037e+00    2.25322e+00    5.63359e-01    5.63572e-01    5.63193e-01    5.63572e-01    1.40739e-01    1.40991e-01    1.40739e-01    1.40991e-01    2.86779e+00    9.68060e-01    7.16947e-01    5.31341e-01    7.16947e-01    2.42015e-01    1.32835e-01    1.32835e-01    2.42015e-01
    3.70000e+01    0.00000e+00    0.00000e+00    0.00000e+00    5.07027e+00    2.25318e+00    5.63261e-01    5.63446e-01    5.63418e-01    5.63446e-01    1.40783e-01    1.40977e-01    1.40783e-01    1.40977e-01    2.86779e+00    9.68060e-01    7.16947e-01    5.31341e-01    7.16947e-01    2.42015e-01    1.32835e-01    1.32835e-01    2.42015e-01
    3.80000e+01    0.00000e+00    0.00000e+00    0.00000e+00    5.07008e+00    2.25310e+00    5.63328e-01    5.63511e-01    5.63101e-01    5.63511e-01    1.40813e-01    1.40949e-01    1.40813e-01    1.40949e-01    2.86779e+00    9.68060e-01    7.16947e-01    5.31341e-01    7.16947e-01    2.42015e-01    1.32835e-01    1.32835e-01    2.42015e-01
    3.90000e+01    0.00000e+00    0.00000e+00    0.00000e+00    5.06905e+00    2.25264e+00    5.63234e-01    5.63237e-01    5.63234e-01    5.63237e-01    1.40790e-01    1.40943e-01    1.40790e-01    1.40943e-01    2.86779e+00    9.68060e-01    7.16947e-01    5.31341e-01    7.16947e-01    2.42015e-01    1.32835e-01    1.32835e-01    2.42015e-01
    0.00000e+00    1.00000e+00    0.00000e+00    0.00000e+00    5.02640e+00    2.23427e+00    5.58259e-01    5.58775e-01    5.58259e-01    5.58510e-01    1.39523e-01    1.39637e-01    1.39523e-01    1.39637e-01    2.86779e+00    9.68060e-01    7.16947e-01    5.31341e-01    7.16947e-01    2.42015e-01    1.32835e-01    1.32835e-01    2.42015e-01
    1.00000e+00    1.00000e+00    2.48338e-04    2.20588e-04    5.02642e+00    2.23428e+00    5.58810e-01    5.58789e-01    5.58020e-01    5.58093e-01    1.39816e-01    1.39603e-01    1.39381e-01    1.39626e-01    2.86779e+00    9.68060e-01    7.16947e-01    5.31341e-01    7.16947e-01    2.42015e-01    1.32835e-01    1.32835e-01    2.42015e-01
    2.00000e+00    1.00000e+00    3.17966e-04    2.15480e-04    5.02625e+00    2.23420e+00    5.59118e-01    5.58677e-01    5.58021e-01    5.57979e-01    1.39758e-01    1.39564e-01    1.39315e-01    1.39622e-01    2.86779e+00    9.68060e-01    7.16947e-01    5.31341e-01    7.16947e-01    2.42015e-01    1.32835e-01    1.32835e-01    2.42015e-01
    3.00000e+00    1.00000e+00    3.22337e-04    2.47703e-04    5.02601e+00    2.23408e+00    5.59041e-01    5.58755e-01    5.57945e-01    5.57918e-01    1.39758e-01    1.39582e-01    1.39292e-01    1.39641e-01    2.86779e+00    9.68060e-01    7.16947e-01    5.31341e-01    7.16947e-01    2.42015e-01    1.32835e-01    1.32835e-01    2.42015e-01
    4.00000e+00    1.00000e+00    3.34988e-04    2.26961e-04    5.02579e+00    2.23397e+00    5.59063e-01    5.58649e-01    5.57930e-01    5.57897e-01    1.39764e-01    1.39574e-01    1.39294e-01    1.39655e-01    2.86779e+00    9.68060e-01    7.16947e-01    5.31341e-01    7.16947e-01    2.42015e-01    1.32835e-01    1.32835e-01    2.42015e-01
    5.00000e+00    1.00000e+00    3.29114e-04    2.20583e-04    5.02565e+00    2.23389e+00    5.59036e-01    5.58643e-01    5.57922e-01    5.57900e-01    1.39738e-01    1.39574e-01    1.39285e-01    1.39661e-01    2.86779e+00    9.68060e-01    7.16947e-01    5.31341e-01    7.16947e-01    2.42015e-01    1.32835e-01    1.32835e-01    2.42015e-01
    6.00000e+00    1.00000e+00    3.06170e-04    2.22703e-04    5.02556e+00    2.23383e+00    5.59012e-01    5.58607e-01    5.57975e-01    5.57857e-01    1.39740e-01    1.39582e-01    1.39304e-01    1.39649e-01    2.86779e+00    9.68060e-01    7.16947e-01    5.31341e-01    7.16947e-01    2.42015e-01    1.32835e-01    1.32835e-01    2.42015e-01
    7.00000e+00    1.00000e+00    2.59961e-04    2.19089e-04    5.02560e+00    2.23383e+00    5.58949e-01    5.58610e-01    5.58067e-01    5.57871e-01    1.39719e-01    1.39597e-01    1.39326e-01    1.39629e-01    2.86779e+00    9.68060e-01    7.16947e-01    5.31341e-01    7.16947e-01    2.42015e-01    1.32835e-01    1.32835e-01    2.42015e-01
    8.00000e+00    1.00000e+00    2.00152e-04    2.11185e-04    5.02583e+00    2.23391e+00    5.58878e-01    5.58619e-01    5.58200e-01    5.57905e-01    1.39703e-01    1.39627e-01    1.39365e-01    1.39617e-01    2.86779e+00    9.68060e-01    7.16947e-01    5.31341e-01    7.16947e-01    2.42015e-01    1.32835e-01    1.32835e-01    2.42015e-01
    9.00000e+00    1.00000e+00    1.28647e-04    2.02282e-04    5.02630e+00    2.23410e+00    5.58814e-01    5.58659e-01    5.58379e-01    5.57972e-01    1.39686e-01    1.39665e-01    1.39415e-01    1.39606e-01    2.86779e+00    9.68060e-01    7.16947e-01    5.31341e-01    7.16947e-01    2.42015e-01    1.32835e-01    1.32835e-01    2.42015e-01
    1.00000e+01    1.00000e+00    4.52343e-05    1.92109e-04    5.02706e+00    2.23442e+00    5.58764e-01    5.58726e-01    5.58612e-01    5.58072e-01    1.39675e-01    1.39717e-01    1.39481e-01    1.39598e-01    2.86779e+00    9.68060e-01    7.16947e-01    5.31341e-01    7.16947e-01    2.42015e-01    1.32835e-01    1.32835e-01    2.42015e-01
    1.10000e+01    1.00000e+00   -4.89051e-05    1.79697e-04    5.02816e+00    2.23488e+00    5.58728e-01    5.58833e-01    5.58897e-01    5.58220e-01    1.39666e-01    1.39781e-01    1.39559e-01    1.39597e-01    2.86779e+00    9.68060e-01    7.16947e-01    5.31341e-01    7.16947e-01    2.42015e-01    1.32835e-01    1.32835e-01    2.42015e-01
    1.20000e+01    1.00000e+00   -1.51599e-04    1.64604e-04    5.02964e+00    2.23552e+00    5.58719e-01    5.58977e-01    5.59237e-01    5.58414e-01    1.39664e-01    1.39858e-01    1.39653e-01    1.39604e-01    2.86779e+00    9.68060e-01    7.16947e-01    5.31341e-01    7.16947e-01    2.42015e-01    1.32835e-01    1.32835e-01    2.42015e-01
    1.30000e+01    1.00000e+00   -2.60829e-04    1.47918e-04    5.03152e+00    2.23632e+00    5.58740e-01    5.59165e-01    5.59631e-01    5.58657e-01    1.39670e-01    1.39949e-01    1.39762e-01    1.39620e-01    2.86779e+00    9.68060e-01    7.16947e-01    5.31341e-01    7.16947e-01    2.42015e-01    1.32835e-01    1.32835e-01    2.42015e-01
    1.40000e+01    1.00000e+00   -3.73267e-04    1.29602e-04    5.03380e+00    2.23731e+00    5.58797e-01    5.59398e-01    5.60071e-01    5.58951e-01    1.39686e-01    1.40051e-01    1.39886e-01    1.39645e-01    2.86779e+00    9.68060e-01    7.16947e-01    5.31341e-01    7.16947e-01    2.42015e-01    1.32835e-01    1.32835e-01    2.42015e-01
    1.50000e+01    1.00000e+00   -4.84387e-04    1.09099e-04    5.03647e+00    2.23848e+00    5.58896e-01    5.59674e-01    5.60549e-01    5.59296e-01    1.39712e-01    1.40161e-01    1.40019e-01    1.39682e-01    2.86779e+00    9.68060e-01    7.16947e-01    5.31341e-01    7.16947e-01    2.42015e-01    1.32835e-01    1.32835e-01    2.42015e-01
    1.60000e+01    1.00000e+00   -5.88448e-04    8.75417e-05    5.03949e+00    2.23980e+00    5.59040e-01    5.59991e-01    5.61049e-01    5.59685e-01    1.39751e-01    1.40277e-01    1.40161e-01    1.39731e-01    2.86779e+00    9.68060e-01    7.16947e-01    5.31341e-01    7.16947e-01    2.42015e-01    1.32835e-01    1.32835e-01    2.42015e-01
    1.70000e+01    1.00000e+00   -6.79072e-04    6.56327e-05    5.04280e+00    2.24126e+00    5.59233e-01    5.60341e-01    5.61553e-01    5.60110e-01    1.39804e-01    1.40395e-01    1.40306e-01    1.39793e-01    2.86779e+00    9.68060e-01    7.16947e-01    5.31341e-01    7.16947e-01    2.42015e-01    1.32835e-01    1.32835e-01    2.42015e-01
    1.80000e+01    1.00000e+00   -7.49834e-04    4.29646e-05    5.04630e+00    2.24281e+00    5.59478e-01    5.60715e-01    5.62040e-01    5.60563e-01    1.39870e-01    1.40509e-01    1.40449e-01    1.39866e-01    2.86779e+00    9.68060e-01    7.16947e-01    5.31341e-01    7.16947e-01    2.42015e-01    1.32835e-01    1.32835e-01    2.42015e-01
    1.90000e+01    1.00000e+00   -7.95062e-04    1.96061e-05    5.04989e+00    2.24440e+00    5.59772e-01    5.61102e-01    5.62490e-01    5.61031e-01    1.39950e-01    1.40613e-01    1.40584e-01    1.39951e-01    2.86779e+00    9.68060e-01    7.16947e-01    5.31341e-01    7.16947e-01    2.42015e-01    1.32835e-01    1.32835e-01    2.42015e-01
    2.00000e+01    1.00000e+00   -8.10528e-04   -3.47246e-06    5.05346e+00    2.24598e+00    5.60112e-01    5.61488e-01    5.62883e-01    5.61497e-01    1.40041e-01    1.40705e-01    1.40708e-01    1.40047e-01    2.86779e+00    9.68060e-01    7.16947e-01    5.31341e-01    7.16947e-01    2.42015e-01    1.32835e-01    1.32835e-01    2.42015e-01
    2.10000e+01    1.00000e+00   -7.94374e-04   -2.72818e-05    5.05690e+00    2.24751e+00    5.60491e-01    5.61859e-01    5.63207e-01    5.61951e-01    1.40142e-01    1.40780e-01    1.40815e-01    1.40151e-01    2.86779e+00    9.68060e-01    7.16947e-01    5.31341e-01    7.16947e-01    2.42015e-01    1.32835e-01    1.32835e-01    2.42015e-01
    2.20000e+01    1.00000e+00   -7.47499e-04   -5.24513e-05    5.06011e+00    2.24892e+00    5.60898e-01    5.62201e-01    5.63452e-01    5.62382e-01    1.40248e-01    1.40835e-01    1.40904e-01    1.40263e-01    2.86779e+00    9.68060e-01    7.16947e-01    5.31341e-01    7.16947e-01    2.42015e-01    1.32835e-01    1.32835e-01    2.42015e-01
    2.30000e+01    1.00000e+00   -6.73329e-04   -7.84255e-05    5.06299e+00    2.25019e+00    5.61318e-01    5.62505e-01    5.63618e-01    5.62777e-01    1.40356e-01    1.40871e-01    1.40973e-01    1.40379e-01    2.86779e+00    9.68060e-01    7.16947e-01    5.31341e-01    7.16947e-01    2.42015e-01    1.32835e-01    1.32835e-01    2.42015e-01
    2.40000e+01    1.00000e+00   -5.77576e-04   -1.05139e-04    5.06549e+00    2.25128e+00    5.61738e-01    5.62762e-01    5.63708e-01    5.63126e-01    1.40461e-01    1.40889e-01    1.41023e-01    1.40495e-01    2.86779e+00    9.68060e-01    7.16947e-01    5.31341e-01    7.16947e-01    2.42015e-01    1.32835e-01    1.32835e-01    2.42015e-01
    2.50000e+01    1.00000e+00   -4.67435e-04   -1.33266e-04    5.06756e+00    2.25218e+00    5.62141e-01    5.62968e-01    5.63733e-01    5.63429e-01    1.40559e-01    1.40890e-01    1.41055e-01    1.40609e-01    2.86779e+00    9.68060e-01    7.16947e-01    5.31341e-01    7.16947e-01    2.42015e-01    1.32835e-01    1.32835e-01    2.42015e-01
    2.60000e+01    1.00000e+00   -3.50499e-04   -1.61009e-04    5.06921e+00    2.25288e+00    5.62514e-01    5.63124e-01    5.63703e-01    5.63679e-01    1.40646e-01    1.40880e-01    1.41070e-01    1.40717e-01    2.86779e+00    9.68060e-01    7.16947e-01    5.31341e-01    7.16947e-01    2.42015e-01    1.32835e-01    1.32835e-01    2.42015e-01
    2.70000e+01    1.00000e+00   -2.33658e-04   -1.87195e-04    5.07044e+00    2.25338e+00    5.62844e-01    5.63231e-01    5.63632e-01    5.63875e-01    1.40720e-01    1.40861e-01    1.41071e-01    1.40815e-01    2.86779e+00    9.68060e-01    7.16947e-01    5.31341e-01    7.16947e-01    2.42015e-01    1.32835e-01    1.32835e-01    2.42015e-01
    2.80000e+01    1.00000e+00   -1.22473e-04   -2.11067e-04    5.07127e+00    2.25372e+00    5.63125e-01    5.63296e-01    5.63533e-01    5.64020e-01    1.40779e-01    1.40837e-01    1.41059e-01    1.40903e-01    2.86779e+00    9.68060e-01    7.16947e-01    5.31341e-01    7.16947e-01    2.42015e-01    1.32835e-01    1.32835e-01    2.42015e-01
    2.90000e+01    1.00000e+00   -2.06001e-05   -2.31106e-04    5.07176e+00    2.25390e+00    5.63355e-01    5.63326e-01    5.63414e-01    5.64117e-01    1.40824e-01    1.40810e-01    1.41037e-01    1.40977e-01    2.86779e+00    9.68060e-01    7.16947e-01    5.31341e-01    7.16947e-01    2.42015e-01    1.32835e-01    1.32835e-01    2.42015e-01
    3.00000e+01    1.00000e+00    6.93563e-05   -2.45253e-04    5.07196e+00    2.25396e+00    5.63536e-01    5.63327e-01    5.63288e-01    5.64166e-01    1.40856e-01    1.40785e-01    1.41006e-01    1.41040e-01    2.86779e+00    9.68060e-01    7.16947e-01    5.31341e-01    7.16947e-01    2.42015e-01    1.32835e-01    1.32835e-01    2.42015e-01
    3.10000e+01    1.00000e+00    1.46126e-04   -2.54185e-04    5.07194e+00    2.25393e+00    5.63670e-01    5.63311e-01    5.63161e-01    5.64177e-01    1.40875e-01    1.40760e-01    1.40970e-01    1.41088e-01    2.86779e+00    9.68060e-01    7.16947e-01    5.31341e-01    7.16947e-01    2.42015e-01    1.32835e-01    1.32835e-01    2.42015e-01
    3.20000e+01    1.00000e+00    2.11019e-04   -2.57641e-04    5.07174e+00    2.25382e+00    5.63765e-01    5.63279e-01    5.63035e-01    5.64156e-01    1.40888e-01    1.40740e-01    1.40932e-01    1.41125e-01    2.86779e+00    9.68060e-01    7.16947e-01    5.31341e-01    7.16947e-01    2.42015e-01    1.32835e-01    1.32835e-01    2.42015e-01
    3.30000e+01    1.00000e+00    2.63127e-04   -2.53203e-04    5.07144e+00    2.25368e+00    5.63830e-01    5.63253e-01    5.62928e-01    5.64114e-01    1.40889e-01    1.40717e-01    1.40885e-01    1.41145e-01    2.86779e+00    9.68060e-01    7.16947e-01    5.31341e-01    7.16947e-01    2.42015e-01    1.32835e-01    1.32835e-01    2.42015e-01
    3.40000e+01    1.00000e+00    2.92273e-04   -2.38185e-04    5.07109e+00    2.25352e+00    5.63868e-01    5.63200e-01    5.62869e-01    5.64012e-01    1.40889e-01    1.40723e-01    1.40846e-01    1.41162e-01    2.86779e+00    9.68060e-01    7.16947e-01    5.31341e-01    7.16947e-01    2.42015e-01    1.32835e-01    1.32835e-01    2.42015e-01
    3.50000e+01    1.00000e+00    3.05218e-04   -2.28821e-04    5.07077e+00    2.25338e+00    5.63856e-01    5.63196e-01    5.62814e-01    5.63960e-01    1.40883e-01    1.40699e-01    1.40828e-01    1.41150e-01    2.86779e+00    9.68060e-01    7.16947e-01    5.31341e-01    7.16947e-01    2.42015e-01    1.32835e-01    1.32835e-01    2.42015e-01
    3.60000e+01    1.00000e+00    2.97684e-04   -2.34358e-04    5.07044e+00    2.25324e+00    5.63846e-01    5.63088e-01    5.62827e-01    5.63885e-01    1.40874e-01    1.40706e-01    1.40824e-01    1.41147e-01    2.86779e+00    9.68060e-01    7.16947e-01    5.31341e-01    7.16947e-01    2.42015e-01    1.32835e-01    1.32835e-01    2.42015e-01
    3.70000e+01    1.00000e+00    2.93573e-04   -1.84757e-04    5.07016e+00    2.25312e+00    5.63771e-01    5.63176e-01    5.62754e-01    5.63783e-01    1.40892e-01    1.40717e-01    1.40822e-01    1.41117e-01    2.86779e+00    9.68060e-01    7.16947e-01    5.31341e-01    7.16947e-01    2.42015e-01    1.32835e-01    1.32835e-01    2.42015e-01
    3.80000e+01    1.00000e+00    2.25288e-04   -1.77310e-04    5.07001e+00    2.25307e+00    5.63779e-01    5.63086e-01    5.63054e-01    5.63644e-01    1.40854e-01    1.40667e-01    1.40816e-01    1.41046e-01    2.86779e+00    9.68060e-01    7.16947e-01    5.31341e-01    7.16947e-01    2.42015e-01    1.32835e-01    1.32835e-01    2.42015e-01
    3.90000e+01    1.00000e+00    0.00000e+00    0.00000e+00    5.07006e+00    2.25309e+00    5.63548e-01    5.63098e-01    5.63548e-01    5.63321e-01    1.40824e-01    1.40902e-01    1.40824e-01    1.40902e-01    2.86779e+00    9.68060e-01    7.16947e-01    5.31341e-01    7.16947e-01    2.42015e-01    1.32835e-01    1.32835e-01    2.42015e-01
    0.00000e+00    2.00000e+00    0.00000e+00    0.00000e+00    5.02630e+00    2.23423e+00    5.58354e-01    5.58405e-01    5.58354e-01    5.58618e-01    1.39514e-01    1.39655e-01    1.39514e-01    1.39655e-01    2.86779e+00    9.68060e-01    7.16947e-01    5.31341e-01    7.16947e-01    2.42015e-01    1.32835e-01    1.32835e-01    2.42015e-01
    1.00000e+00    2.00000e+00    2.20057e-04    2.85572e-04    5.02643e+00    2.23428e+00    5.58717e-01    5.59066e-01    5.58010e-01    5.58079e-01    1.39736e-01    1.39624e-01    1.39312e-01    1.39600e-01    2.86779e+00    9.68060e-01    7.16947e-01    5.31341e-01    7.16947e-01    2.42015e-01    1.32835e-01    1.32835e-01    2.42015e-01
    2.00000e+00    2.00000e+00    3.64604e-04    4.10569e-04    5.02629e+00    2.23421e+00    5.59107e-01    5.59105e-01    5.57870e-01    5.57707e-01    1.39858e-01    1.39618e-01    1.39227e-01    1.39583e-01    2.86779e+00    9.68060e-01    7.16947e-01    5.31341e-01    7.16947e-01    2.42015e-01    1.32835e-01    1.32835e-01    2.42015e-01
    3.00000e+00    2.00000e+00    4.15729e-04    4.49187e-04    5.02610e+00    2.23412e+00    5.59195e-01    5.59088e-01    5.57806e-01    5.57582e-01    1.39941e-01    1.39588e-01    1.39215e-01    1.39563e-01    2.86779e+00    9.68060e-01    7.16947e-01    5.31341e-01    7.16947e-01    2.42015e-01    1.32835e-01    1.32835e-01    2.42015e-01
    4.00000e+00    2.00000e+00    4.32239e-04    4.56159e-04    5.02596e+00    2.23405e+00    5.59236e-01    5.59063e-01    5.57784e-01    5.57538e-01    1.39955e-01    1.39578e-01    1.39211e-01    1.39554e-01    2.86779e+00    9.68060e-01    7.16947e-01    5.31341e-01    7.16947e-01    2.42015e-01    1.32835e-01    1.32835e-01    2.42015e-01
    5.00000e+00    2.00000e+00    4.12310e-04    4.52154e-04    5.02581e+00    2.23396e+00    5.59225e-01    5.59015e-01    5.57833e-01    5.57497e-01    1.39934e-01    1.39582e-01    1.39217e-01    1.39544e-01    2.86779e+00    9.68060e-01    7.16947e-01    5.31341e-01    7.16947e-01    2.42015e-01    1.32835e-01    1.32835e-01    2.42015e-01