TITLE="LBM output"
VARIABLES = "X", "Y", "U","V","density","f0","f1","f2","f3","f4","f5","f6","f7","f8","feq0","feq1","feq2","feq3","feq4","feq5","feq6","feq7","feq8",
ZONE T = "fluid", I=40, J=40, F=POINT
SOLUTIONTIME=1506
    0.00000e+00    0.00000e+00    0.00000e+00    0.00000e+00    5.18886e+00    2.30620e+00    5.76537e-01    5.76538e-01    5.76537e-01    5.76538e-01    1.44117e-01    1.44138e-01    1.44117e-01    1.44138e-01    2.92290e+00    9.86663e-01    7.30724e-01    5.41552e-01    7.30724e-01    2.46666e-01    1.35388e-01    1.35388e-01    2.46666e-01
    1.00000e+00    0.00000e+00    0.00000e+00    0.00000e+00    5.18863e+00    2.30611e+00    5.76561e-01    5.76501e-01    5.76514e-01    5.76501e-01    1.44091e-01    1.44132e-01    1.44091e-01    1.44132e-01    2.92290e+00    9.86663e-01    7.30724e-01    5.41552e-01    7.30724e-01    2.46666e-01    1.35388e-01    1.35388e-01    2.46666e-01
    2.00000e+00    0.00000e+00    0.00000e+00    0.00000e+00    5.18847e+00    2.30604e+00    5.76504e-01    5.76489e-01    5.76504e-01    5.76489e-01    1.44076e-01    1.44149e-01    1.44076e-01    1.44149e-01    2.92290e+00    9.86663e-01    7.30724e-01    5.41552e-01    7.30724e-01    2.46666e-01    1.35388e-01    1.35388e-01    2.46666e-01
    3.00000e+00    0.00000e+00    0.00000e+00    0.00000e+00    5.18831e+00    2.30596e+00    5.76510e-01    5.76465e-01    5.76473e-01    5.76465e-01    1.44063e-01    1.44156e-01    1.44063e-01    1.44156e-01    2.92290e+00    9.86663e-01    7.30724e-01    5.41552e-01    7.30724e-01    2.46666e-01    1.35388e-01    1.35388e-01    2.46666e-01
    4.00000e+00    0.00000e+00    0.00000e+00    0.00000e+00    5.18803e+00    2.30584e+00    5.76477e-01    5.76430e-01    5.76443e-01    5.76430e-01    1.44067e-01    1.44142e-01    1.44067e-01    1.44142e-01    2.92290e+00    9.86663e-01    7.30724e-01    5.41552e-01    7.30724e-01    2.46666e-01    1.35388e-01    1.35388e-01    2.46666e-01
    5.00000e+00    0.00000e+00    0.00000e+00    0.00000e+00    5.18775e+00    2.30571e+00    5.76445e-01    5.76398e-01    5.76407e-01    5.76398e-01    1.44075e-01    1.44123e-01    1.44075e-01    1.44123e-01    2.92290e+00    9.86663e-01    7.30724e-01    5.41552e-01    7.30724e-01    2.46666e-01    1.35388e-01    1.35388e-01    2.46666e-01
    6.00000e+00    0.00000e+00    0.00000e+00    0.00000e+00    5.18742e+00    2.30556e+00    5.76413e-01    5.76360e-01    5.76367e-01    5.76360e-01    1.44091e-01    1.44090e-01    1.44091e-01    1.44090e-01    2.92290e+00    9.86663e-01    7.30724e-01    5.41552e-01    7.30724e-01    2.46666e-01    1.35388e-01    1.35388e-01    2.46666e-01
    7.00000e+00    0.00000e+00    0.00000e+00    0.00000e+00    5.18705e+00    2.30539e+00    5.76369e-01    5.76322e-01    5.76323e-01    5.76322e-01    1.44107e-01    1.44056e-01    1.44107e-01    1.44056e-01    2.92290e+00    9.86663e-01    7.30724e-01    5.41552e-01    7.30724e-01    2.46666e-01    1.35388e-01    1.35388e-01    2.46666e-01
    8.00000e+00    0.00000e+00    0.00000e+00    0.00000e+00    5.18665e+00    2.30520e+00    5.76329e-01    5.76278e-01    5.76274e-01    5.76278e-01    1.44128e-01    1.44013e-01    1.44128e-01    1.44013e-01    2.92290e+00    9.86663e-01    7.30724e-01    5.41552e-01    7.30724e-01    2.46666e-01    1.35388e-01    1.35388e-01    2.46666e-01
    9.00000e+00    0.00000e+00    0.00000e+00    0.00000e+00    5.18621e+00    2.30500e+00    5.76278e-01    5.76233e-01    5.76223e-01    5.76233e-01    1.44148e-01    1.43972e-01    1.44148e-01    1.43972e-01    2.92290e+00    9.86663e-01    7.30724e-01    5.41552e-01    7.30724e-01    2.46666e-01    1.35388e-01    1.35388e-01    2.46666e-01
    1.00000e+01    0.00000e+00    0.00000e+00    0.00000e+00    5.18574e+00    2.30479e+00    5.76229e-01    5.76183e-01    5.76168e-01    5.76183e-01    1.44169e-01    1.43926e-01    1.44169e-01    1.43926e-01    2.92290e+00    9.86663e-01    7.30724e-01    5.41552e-01    7.30724e-01    2.46666e-01    1.35388e-01    1.35388e-01    2.46666e-01
    1.10000e+01    0.00000e+00    0.00000e+00    0.00000e+00    5.18525e+00    2.30457e+00    5.76173e-01    5.76131e-01    5.76110e-01    5.76131e-01    1.44189e-01    1.43880e-01    1.44189e-01    1.43880e-01    2.92290e+00    9.86663e-01    7.30724e-01    5.41552e-01    7.30724e-01    2.46666e-01    1.35388e-01    1.35388e-01    2.46666e-01
    1.20000e+01    0.00000e+00    0.00000e+00    0.00000e+00    5.18472e+00    2.30433e+00    5.76116e-01    5.76075e-01    5.76048e-01    5.76075e-01    1.44209e-01    1.43832e-01    1.44209e-01    1.43832e-01    2.92290e+00    9.86663e-01    7.30724e-01    5.41552e-01    7.30724e-01    2.46666e-01    1.35388e-01    1.35388e-01    2.46666e-01
    1.30000e+01    0.00000e+00    0.00000e+00    0.00000e+00    5.18418e+00    2.30408e+00    5.76054e-01    5.76017e-01    5.75985e-01    5.76017e-01    1.44225e-01    1.43787e-01    1.44225e-01    1.43787e-01    2.92290e+00    9.86663e-01    7.30724e-01    5.41552e-01    7.30724e-01    2.46666e-01    1.35388e-01    1.35388e-01    2.46666e-01
    1.40000e+01    0.00000e+00    0.00000e+00    0.00000e+00    5.18361e+00    2.30382e+00    5.75992e-01    5.75956e-01    5.75918e-01    5.75956e-01    1.44240e-01    1.43742e-01    1.44240e-01    1.43742e-01    2.92290e+00    9.86663e-01    7.30724e-01    5.41552e-01    7.30724e-01    2.46666e-01    1.35388e-01    1.35388e-01    2.46666e-01
    1.50000e+01    0.00000e+00    0.00000e+00    0.00000e+00    5.18301e+00    2.30355e+00    5.75925e-01    5.75893e-01    5.75850e-01    5.75893e-01    1.44249e-01    1.43701e-01    1.44249e-01    1.43701e-01    2.92290e+00    9.86663e-01    7.30724e-01    5.41552e-01    7.30724e-01    2.46666e-01    1.35388e-01    1.35388e-01    2.46666e-01
    1.60000e+01    0.00000e+00    0.00000e+00    0.00000e+00    5.18240e+00    2.30327e+00    5.75857e-01    5.75829e-01    5.75779e-01    5.75829e-01    1.44252e-01    1.43663e-01    1.44252e-01    1.43663e-01    2.92290e+00    9.86663e-01    7.30724e-01    5.41552e-01    7.30724e-01    2.46666e-01    1.35388e-01    1.35388e-01    2.46666e-01
    1.70000e+01    0.00000e+00    0.00000e+00    0.00000e+00    5.18176e+00    2.30299e+00    5.75787e-01    5.75762e-01    5.75706e-01    5.75762e-01    1.44248e-01    1.43632e-01    1.44248e-01    1.43632e-01    2.92290e+00    9.86663e-01    7.30724e-01    5.41552e-01    7.30724e-01    2.46666e-01    1.35388e-01    1.35388e-01    2.46666e-01
    1.80000e+01    0.00000e+00    0.00000e+00    0.00000e+00    5.18111e+00    2.30269e+00    5.75714e-01    5.75692e-01    5.75630e-01    5.75692e-01    1.44237e-01    1.43607e-01    1.44237e-01    1.43607e-01    2.92290e+00    9.86663e-01    7.30724e-01    5.41552e-01    7.30724e-01    2.46666e-01    1.35388e-01    1.35388e-01    2.46666e-01
    1.90000e+01    0.00000e+00    0.00000e+00    0.00000e+00    5.18042e+00    2.30238e+00    5.75639e-01    5.75621e-01    5.75552e-01    5.75621e-01    1.44214e-01    1.43591e-01    1.44214e-01    1.43591e-01    2.92290e+00    9.86663e-01    7.30724e-01    5.41552e-01    7.30724e-01    2.46666e-01    1.35388e-01    1.35388e-01    2.46666e-01
    2.00000e+01    0.00000e+00    0.00000e+00    0.00000e+00    5.17972e+00    2.30207e+00    5.75561e-01    5.75547e-01    5.75471e-01    5.75547e-01    1.44181e-01    1.43583e-01    1.44181e-01    1.43583e-01    2.92290e+00    9.86663e-01    7.30724e-01    5.41552e-01    7.30724e-01    2.46666e-01    1.35388e-01    1.35388e-01    2.46666e-01
    2.10000e+01    0.00000e+00    0.00000e+00    0.00000e+00    5.17899e+00    2.30174e+00    5.75481e-01    5.75470e-01    5.75387e-01    5.75470e-01    1.44137e-01    1.43585e-01    1.44137e-01    1.43585e-01    2.92290e+00    9.86663e-01    7.30724e-01    5.41552e-01    7.30724e-01    2.46666e-01    1.35388e-01    1.35388e-01    2.46666e-01
    2.20000e+01    0.00000e+00    0.00000e+00    0.00000e+00    5.17822e+00    2.30139e+00    5.75397e-01    5.75389e-01    5.75300e-01    5.75389e-01    1.44083e-01    1.43596e-01    1.44083e-01    1.43596e-01    2.92290e+00    9.86663e-01    7.30724e-01    5.41552e-01    7.30724e-01    2.46666e-01    1.35388e-01    1.35388e-01    2.46666e-01
    2.30000e+01    0.00000e+00    0.00000e+00    0.00000e+00    5.17743e+00    2.30104e+00    5.75310e-01    5.75304e-01    5.75209e-01    5.75304e-01    1.44018e-01    1.43616e-01    1.44018e-01    1.43616e-01    2.92290e+00    9.86663e-01    7.30724e-01    5.41552e-01    7.30724e-01    2.46666e-01    1.35388e-01    1.35388e-01    2.46666e-01
    2.40000e+01    0.00000e+00    0.00000e+00    0.00000e+00    5.17661e+00    2.30067e+00    5.75219e-01    5.75215e-01    5.75114e-01    5.75215e-01    1.43945e-01    1.43642e-01    1.43945e-01    1.43642e-01    2.92290e+00    9.86663e-01    7.30724e-01    5.41552e-01    7.30724e-01    2.46666e-01    1.35388e-01    1.35388e-01    2.46666e-01
    2.50000e+01    0.00000e+00    0.00000e+00    0.00000e+00    5.17575e+00    2.30028e+00    5.75125e-01    5.75123e-01    5.75017e-01    5.75123e-01    1.43866e-01    1.43673e-01    1.43866e-01    1.43673e-01    2.92290e+00    9.86663e-01    7.30724e-01    5.41552e-01    7.30724e-01    2.46666e-01    1.35388e-01    1.35388e-01    2.46666e-01
    2.60000e+01    0.00000e+00    0.00000e+00    0.00000e+00    5.17487e+00    2.29989e+00    5.75028e-01    5.75026e-01    5.74917e-01    5.75026e-01    1.43784e-01    1.43708e-01    1.43784e-01    1.43708e-01    2.92290e+00    9.86663e-01    7.30724e-01    5.41552e-01    7.30724e-01    2.46666e-01    1.35388e-01    1.35388e-01    2.46666e-01
    2.70000e+01    0.00000e+00    0.00000e+00    0.00000e+00    5.17397e+00    2.29949e+00    5.74929e-01    5.74926e-01    5.74815e-01    5.74926e-01    1.43702e-01    1.43742e-01    1.43702e-01    1.43742e-01    2.92290e+00    9.86663e-01    7.30724e-01    5.41552e-01    7.30724e-01    2.46666e-01    1.35388e-01    1.35388e-01    2.46666e-01
    2.80000e+01    0.00000e+00    0.00000e+00    0.00000e+00    5.17306e+00    2.29908e+00    5.74827e-01    5.74823e-01    5.74714e-01    5.74823e-01    1.43624e-01    1.43772e-01    1.43624e-01    1.43772e-01    2.92290e+00    9.86663e-01    7.30724e-01    5.41552e-01    7.30724e-01    2.46666e-01    1.35388e-01    1.35388e-01    2.46666e-01
    2.90000e+01    0.00000e+00    0.00000e+00    0.00000e+00    5.17215e+00    2.29868e+00    5.74726e-01    5.74721e-01    5.74613e-01    5.74721e-01    1.43553e-01    1.43796e-01    1.43553e-01    1.43796e-01    2.92290e+00    9.86663e-01    7.30724e-01    5.41552e-01    7.30724e-01    2.46666e-01    1.35388e-01    1.35388e-01    2.46666e-01
    3.00000e+01    0.00000e+00    0.00000e+00    0.00000e+00    5.17126e+00    2.29828e+00    5.74624e-01    5.74618e-01    5.74516e-01    5.74618e-01    1.43492e-01    1.43811e-01    1.43492e-01    1.43811e-01    2.92290e+00    9.86663e-01    7.30724e-01    5.41552e-01    7.30724e-01    2.46666e-01    1.35388e-01    1.35388e-01    2.46666e-01
    3.10000e+01    0.00000e+00    0.00000e+00    0.00000e+00    5.17040e+00    2.29790e+00    5.74527e-01    5.74519e-01    5.74422e-01    5.74519e-01    1.43445e-01    1.43816e-01    1.43445e-01    1.43816e-01    2.92290e+00    9.86663e-01    7.30724e-01    5.41552e-01    7.30724e-01    2.46666e-01    1.35388e-01    1.35388e-01    2.46666e-01
    3.20000e+01    0.00000e+00    0.00000e+00    0.00000e+00    5.16960e+00    2.29754e+00    5.74432e-01    5.74425e-01    5.74337e-01    5.74425e-01    1.43412e-01    1.43808e-01    1.43412e-01    1.43808e-01    2.92290e+00    9.86663e-01    7.30724e-01    5.41552e-01    7.30724e-01    2.46666e-01    1.35388e-01    1.35388e-01    2.46666e-01
    3.30000e+01    0.00000e+00    0.00000e+00    0.00000e+00    5.16886e+00    2.29721e+00    5.74346e-01    5.74339e-01    5.74258e-01    5.74339e-01    1.43395e-01    1.43789e-01    1.43395e-01    1.43789e-01    2.92290e+00    9.86663e-01    7.30724e-01    5.41552e-01    7.30724e-01    2.46666e-01    1.35388e-01    1.35388e-01    2.46666e-01
    3.40000e+01    0.00000e+00    0.00000e+00    0.00000e+00    5.16820e+00    2.29692e+00    5.74266e-01    5.74261e-01    5.74192e-01    5.74261e-01    1.43396e-01    1.43757e-01    1.43396e-01    1.43757e-01    2.92290e+00    9.86663e-01    7.30724e-01    5.41552e-01    7.30724e-01    2.46666e-01    1.35388e-01    1.35388e-01    2.46666e-01
    3.50000e+01    0.00000e+00    0.00000e+00    0.00000e+00    5.16766e+00    2.29667e+00    5.74199e-01    5.74195e-01    5.74138e-01    5.74195e-01    1.43411e-01    1.43718e-01    1.43411e-01    1.43718e-01    2.92290e+00    9.86663e-01    7.30724e-01    5.41552e-01    7.30724e-01    2.46666e-01    1.35388e-01    1.35388e-01    2.46666e-01
    3.60000e+01    0.00000e+00    0.00000e+00    0.00000e+00    5.16720e+00    2.29647e+00    5.74142e-01    5.74141e-01    5.74088e-01    5.74141e-01    1.43441e-01    1.43667e-01    1.43441e-01    1.43667e-01    2.92290e+00    9.86663e-01    7.30724e-01    5.41552e-01    7.30724e-01    2.46666e-01    1.35388e-01    1.35388e-01    2.46666e-01
    3.70000e+01    0.00000e+00    0.00000e+00    0.00000e+00    5.16692e+00    2.29635e+00    5.74098e-01    5.74108e-01    5.74089e-01    5.74108e-01    1.43472e-01    1.43615e-01    1.43472e-01    1.43615e-01    2.92290e+00    9.86663e-01    7.30724e-01    5.41552e-01    7.30724e-01    2.46666e-01    1.35388e-01    1.35388e-01    2.46666e-01
    3.80000e+01    0.00000e+00    0.00000e+00    0.00000e+00    5.16671e+00    2.29625e+00    5.74076e-01    5.74099e-01    5.74024e-01    5.74099e-01    1.43517e-01    1.43564e-01    1.43517e-01    1.43564e-01    2.92290e+00    9.86663e-01    7.30724e-01    5.41552e-01    7.30724e-01    2.46666e-01    1.35388e-01    1.35388e-01    2.46666e-01
    3.90000e+01    0.00000e+00    0.00000e+00    0.00000e+00    5.16645e+00    2.29615e+00    5.74055e-01    5.74052e-01    5.74055e-01    5.74052e-01    1.43509e-01    1.43537e-01    1.43509e-01    1.43537e-01    2.92290e+00    9.86663e-01    7.30724e-01    5.41552e-01    7.30724e-01    2.46666e-01    1.35388e-01    1.35388e-01    2.46666e-01
    0.00000e+00    1.00000e+00    0.00000e+00    0.00000e+00    5.18864e+00    2.30611e+00    5.76477e-01    5.76561e-01    5.76477e-01    5.76514e-01    1.44118e-01    1.44131e-01    1.44118e-01    1.44131e-01    2.92290e+00    9.86663e-01    7.30724e-01    5.41552e-01    7.30724e-01    2.46666e-01    1.35388e-01    1.35388e-01    2.46666e-01
    1.00000e+00    1.00000e+00    4.23945e-05    1.77103e-05    5.18860e+00    2.30609e+00    5.76563e-01    5.76543e-01    5.76422e-01    5.76489e-01    1.44151e-01    1.44111e-01    1.44093e-01    1.44132e-01    2.92290e+00    9.86663e-01    7.30724e-01    5.41552e-01    7.30724e-01    2.46666e-01    1.35388e-01    1.35388e-01    2.46666e-01
    2.00000e+00    1.00000e+00    5.71457e-05    2.88978e-05    5.18847e+00    2.30603e+00    5.76612e-01    5.76522e-01    5.76405e-01    5.76425e-01    1.44162e-01    1.44098e-01    1.44091e-01    1.44117e-01    2.92290e+00    9.86663e-01    7.30724e-01    5.41552e-01    7.30724e-01    2.46666e-01    1.35388e-01    1.35388e-01    2.46666e-01
    3.00000e+00    1.00000e+00    3.91357e-05    4.73871e-05    5.18828e+00    2.30595e+00    5.76593e-01    5.76507e-01    5.76450e-01    5.76336e-01    1.44165e-01    1.44094e-01    1.44098e-01    1.44086e-01    2.92290e+00    9.86663e-01    7.30724e-01    5.41552e-01    7.30724e-01    2.46666e-01    1.35388e-01    1.35388e-01    2.46666e-01
    4.00000e+00    1.00000e+00   -1.76909e-05    6.83937e-05    5.18804e+00    2.30584e+00    5.76511e-01    5.76480e-01    5.76558e-01    5.76234e-01    1.44167e-01    1.44095e-01    1.44135e-01    1.44018e-01    2.92290e+00    9.86663e-01    7.30724e-01    5.41552e-01    7.30724e-01    2.46666e-01    1.35388e-01    1.35388e-01    2.46666e-01
    5.00000e+00    1.00000e+00   -1.09553e-04    8.03453e-05    5.18775e+00    2.30571e+00    5.76348e-01    5.76446e-01    5.76712e-01    5.76155e-01    1.44150e-01    1.44104e-01    1.44190e-01    1.43939e-01    2.92290e+00    9.86663e-01    7.30724e-01    5.41552e-01    7.30724e-01    2.46666e-01    1.35388e-01    1.35388e-01    2.46666e-01
    6.00000e+00    1.00000e+00   -2.25464e-04    8.81869e-05    5.18743e+00    2.30556e+00    5.76132e-01    5.76409e-01    5.76892e-01    5.76087e-01    1.44129e-01    1.44113e-01    1.44266e-01    1.43840e-01    2.92290e+00    9.86663e-01    7.30724e-01    5.41552e-01    7.30724e-01    2.46666e-01    1.35388e-01    1.35388e-01    2.46666e-01
    7.00000e+00    1.00000e+00   -3.56535e-04    9.04403e-05    5.18706e+00    2.30539e+00    5.75875e-01    5.76363e-01    5.77088e-01    5.76031e-01    1.44100e-01    1.44126e-01    1.44349e-01    1.43739e-01    2.92290e+00    9.86663e-01    7.30724e-01    5.41552e-01    7.30724e-01    2.46666e-01    1.35388e-01    1.35388e-01    2.46666e-01
    8.00000e+00    1.00000e+00   -4.97561e-04    9.15646e-05    5.18667e+00    2.30521e+00    5.75595e-01    5.76316e-01    5.77293e-01    5.75979e-01    1.44068e-01    1.44137e-01    1.44440e-01    1.43626e-01    2.92290e+00    9.86663e-01    7.30724e-01    5.41552e-01    7.30724e-01    2.46666e-01    1.35388e-01    1.35388e-01    2.46666e-01
    9.00000e+00    1.00000e+00   -6.44840e-04    8.93916e-05    5.18623e+00    2.30501e+00    5.75296e-01    5.76263e-01    5.77502e-01    5.75932e-01    1.44030e-01    1.44150e-01    1.44533e-01    1.43514e-01    2.92290e+00    9.86663e-01    7.30724e-01    5.41552e-01    7.30724e-01    2.46666e-01    1.35388e-01    1.35388e-01    2.46666e-01
    1.00000e+01    1.00000e+00   -7.94662e-04    8.65876e-05    5.18577e+00    2.30480e+00    5.74986e-01    5.76207e-01    5.77708e-01    5.75886e-01    1.43992e-01    1.44161e-01    1.44628e-01    1.43398e-01    2.92290e+00    9.86663e-01    7.30724e-01    5.41552e-01    7.30724e-01    2.46666e-01    1.35388e-01    1.35388e-01    2.46666e-01
    1.10000e+01    1.00000e+00   -9.43674e-04    8.14043e-05    5.18527e+00    2.30457e+00    5.74670e-01    5.76148e-01    5.77907e-01    5.75844e-01    1.43952e-01    1.44172e-01    1.44721e-01    1.43284e-01    2.92290e+00    9.86663e-01    7.30724e-01    5.41552e-01    7.30724e-01    2.46666e-01    1.35388e-01    1.35388e-01    2.46666e-01
    1.20000e+01    1.00000e+00   -1.08866e-03    7.47679e-05    5.18475e+00    2.30433e+00    5.74356e-01    5.76086e-01    5.78093e-01    5.75806e-01    1.43910e-01    1.44180e-01    1.44811e-01    1.43172e-01    2.92290e+00    9.86663e-01    7.30724e-01    5.41552e-01    7.30724e-01    2.46666e-01    1.35388e-01    1.35388e-01    2.46666e-01
    1.30000e+01    1.00000e+00   -1.22587e-03    6.58255e-05    5.18420e+00    2.30408e+00    5.74048e-01    5.76020e-01    5.78258e-01    5.75771e-01    1.43868e-01    1.44187e-01    1.44894e-01    1.43068e-01    2.92290e+00    9.86663e-01    7.30724e-01    5.41552e-01    7.30724e-01    2.46666e-01    1.35388e-01    1.35388e-01    2.46666e-01
    1.40000e+01    1.00000e+00   -1.35088e-03    5.52629e-05    5.18362e+00    2.30382e+00    5.73754e-01    5.75953e-01    5.78394e-01    5.75741e-01    1.43827e-01    1.44190e-01    1.44970e-01    1.42971e-01    2.92290e+00    9.86663e-01    7.30724e-01    5.41552e-01    7.30724e-01    2.46666e-01    1.35388e-01    1.35388e-01    2.46666e-01
    1.50000e+01    1.00000e+00   -1.45903e-03    4.16634e-05    5.18302e+00    2.30355e+00    5.73482e-01    5.75882e-01    5.78495e-01    5.75720e-01    1.43786e-01    1.44188e-01    1.45034e-01    1.42887e-01    2.92290e+00    9.86663e-01    7.30724e-01    5.41552e-01    7.30724e-01    2.46666e-01    1.35388e-01    1.35388e-01    2.46666e-01
    1.60000e+01    1.00000e+00   -1.54534e-03    2.57049e-05    5.18240e+00    2.30327e+00    5.73240e-01    5.75809e-01    5.78550e-01    5.75705e-01    1.43749e-01    1.44182e-01    1.45083e-01    1.42818e-01    2.92290e+00    9.86663e-01    7.30724e-01    5.41552e-01    7.30724e-01    2.46666e-01    1.35388e-01    1.35388e-01    2.46666e-01
    1.70000e+01    1.00000e+00   -1.60463e-03    7.62271e-06    5.18176e+00    2.30298e+00    5.73037e-01    5.75734e-01    5.78551e-01    5.75696e-01    1.43715e-01    1.44169e-01    1.45115e-01    1.42768e-01    2.92290e+00    9.86663e-01    7.30724e-01    5.41552e-01    7.30724e-01    2.46666e-01    1.35388e-01    1.35388e-01    2.46666e-01
    1.80000e+01    1.00000e+00   -1.63220e-03   -1.27682e-05    5.18109e+00    2.30268e+00    5.72883e-01    5.75656e-01    5.78490e-01    5.75693e-01    1.43685e-01    1.44148e-01    1.45125e-01    1.42738e-01    2.92290e+00    9.86663e-01    7.30724e-01    5.41552e-01    7.30724e-01    2.46666e-01    1.35388e-01    1.35388e-01    2.46666e-01
    1.90000e+01    1.00000e+00   -1.62413e-03   -3.53299e-05    5.18040e+00    2.30237e+00    5.72783e-01    5.75575e-01    5.78362e-01    5.75696e-01    1.43661e-01    1.44119e-01    1.45110e-01    1.42732e-01    2.92290e+00    9.86663e-01    7.30724e-01    5.41552e-01    7.30724e-01    2.46666e-01    1.35388e-01    1.35388e-01    2.46666e-01
    2.00000e+01    1.00000e+00   -1.57750e-03   -5.81314e-05    5.17969e+00    2.30204e+00    5.72745e-01    5.75492e-01    5.78161e-01    5.75696e-01    1.43644e-01    1.44081e-01    1.45070e-01    1.42752e-01    2.92290e+00    9.86663e-01    7.30724e-01    5.41552e-01    7.30724e-01    2.46666e-01    1.35388e-01    1.35388e-01    2.46666e-01
    2.10000e+01    1.00000e+00   -1.49117e-03   -8.09861e-05    5.17894e+00    2.30171e+00    5.72773e-01    5.75406e-01    5.77889e-01    5.75695e-01    1.43635e-01    1.44035e-01    1.45003e-01    1.42797e-01    2.92290e+00    9.86663e-01    7.30724e-01    5.41552e-01    7.30724e-01    2.46666e-01    1.35388e-01    1.35388e-01    2.46666e-01
    2.20000e+01    1.00000e+00   -1.36608e-03   -1.03327e-04    5.17817e+00    2.30137e+00    5.72866e-01    5.75317e-01    5.77549e-01    5.75689e-01    1.43632e-01    1.43980e-01    1.44908e-01    1.42866e-01    2.92290e+00    9.86663e-01    7.30724e-01    5.41552e-01    7.30724e-01    2.46666e-01    1.35388e-01    1.35388e-01    2.46666e-01
    2.30000e+01    1.00000e+00   -1.20516e-03   -1.22837e-04    5.17737e+00    2.30101e+00    5.73021e-01    5.75225e-01    5.77147e-01    5.75669e-01    1.43636e-01    1.43918e-01    1.44789e-01    1.42957e-01    2.92290e+00    9.86663e-01    7.30724e-01    5.41552e-01    7.30724e-01    2.46666e-01    1.35388e-01    1.35388e-01    2.46666e-01
    2.40000e+01    1.00000e+00   -1.01387e-03   -1.38326e-04    5.17654e+00    2.30064e+00    5.73232e-01    5.75130e-01    5.76697e-01    5.75632e-01    1.43647e-01    1.43852e-01    1.44646e-01    1.43067e-01    2.92290e+00    9.86663e-01    7.30724e-01    5.41552e-01    7.30724e-01    2.46666e-01    1.35388e-01    1.35388e-01    2.46666e-01
    2.50000e+01    1.00000e+00   -8.00037e-04   -1.49794e-04    5.17568e+00    2.30026e+00    5.73487e-01    5.75033e-01    5.76213e-01    5.75577e-01    1.43663e-01    1.43781e-01    1.44485e-01    1.43189e-01    2.92290e+00    9.86663e-01    7.30724e-01    5.41552e-01    7.30724e-01    2.46666e-01    1.35388e-01    1.35388e-01    2.46666e-01
    2.60000e+01    1.00000e+00   -5.73163e-04   -1.55449e-04    5.17480e+00    2.29986e+00    5.73773e-01    5.74933e-01    5.75715e-01    5.75499e-01    1.43682e-01    1.43710e-01    1.44313e-01    1.43317e-01    2.92290e+00    9.86663e-01    7.30724e-01    5.41552e-01    7.30724e-01    2.46666e-01    1.35388e-01    1.35388e-01    2.46666e-01
    2.70000e+01    1.00000e+00   -3.44233e-04   -1.54394e-04    5.17391e+00    2.29946e+00    5.74071e-01    5.74833e-01    5.75223e-01    5.75395e-01    1.43702e-01    1.43641e-01    1.44135e-01    1.43445e-01    2.92290e+00    9.86663e-01    7.30724e-01    5.41552e-01    7.30724e-01    2.46666e-01    1.35388e-01    1.35388e-01    2.46666e-01
    2.80000e+01    1.00000e+00   -1.24955e-04   -1.47396e-04    5.17301e+00    2.29906e+00    5.74363e-01    5.74732e-01    5.74759e-01    5.75268e-01    1.43722e-01    1.43577e-01    1.43960e-01    1.43565e-01    2.92290e+00    9.86663e-01    7.30724e-01    5.41552e-01    7.30724e-01    2.46666e-01    1.35388e-01    1.35388e-01    2.46666e-01
    2.90000e+01    1.00000e+00    7.31668e-05   -1.34606e-04    5.17211e+00    2.29866e+00    5.74630e-01    5.74632e-01    5.74344e-01    5.75121e-01    1.43738e-01    1.43520e-01    1.43795e-01    1.43670e-01    2.92290e+00    9.86663e-01    7.30724e-01    5.41552e-01    7.30724e-01    2.46666e-01    1.35388e-01    1.35388e-01    2.46666e-01
    3.00000e+01    1.00000e+00    2.39863e-04   -1.16308e-04    5.17124e+00    2.29827e+00    5.74853e-01    5.74536e-01    5.73995e-01    5.74956e-01    1.43749e-01    1.43473e-01    1.43649e-01    1.43755e-01    2.92290e+00    9.86663e-01    7.30724e-01    5.41552e-01    7.30724e-01    2.46666e-01    1.35388e-01    1.35388e-01    2.46666e-01
    3.10000e+01    1.00000e+00    3.66475e-04   -9.38730e-05    5.17039e+00    2.29789e+00    5.75019e-01    5.74443e-01    5.73726e-01    5.74780e-01    1.43753e-01    1.43438e-01    1.43526e-01    1.43814e-01    2.92290e+00    9.86663e-01    7.30724e-01    5.41552e-01    7.30724e-01    2.46666e-01    1.35388e-01    1.35388e-01    2.46666e-01
    3.20000e+01    1.00000e+00    4.46896e-04   -6.94745e-05    5.16961e+00    2.29754e+00    5.75115e-01    5.74357e-01    5.73548e-01    5.74603e-01    1.43748e-01    1.43416e-01    1.43433e-01    1.43844e-01    2.92290e+00    9.86663e-01    7.30724e-01    5.41552e-01    7.30724e-01    2.46666e-01    1.35388e-01    1.35388e-01    2.46666e-01
    3.30000e+01    1.00000e+00    4.78416e-04   -4.41554e-05    5.16888e+00    2.29722e+00    5.75135e-01    5.74277e-01    5.73463e-01    5.74429e-01    1.43734e-01    1.43408e-01    1.43372e-01    1.43846e-01    2.92290e+00    9.86663e-01    7.30724e-01    5.41552e-01    7.30724e-01    2.46666e-01    1.35388e-01    1.35388e-01    2.46666e-01
    3.40000e+01    1.00000e+00    4.62661e-04   -2.04860e-05    5.16825e+00    2.29694e+00    5.75079e-01    5.74209e-01    5.73464e-01    5.74274e-01    1.43711e-01    1.43411e-01    1.43344e-01    1.43819e-01    2.92290e+00    9.86663e-01    7.30724e-01    5.41552e-01    7.30724e-01    2.46666e-01    1.35388e-01    1.35388e-01    2.46666e-01
    3.50000e+01    1.00000e+00    4.02341e-04    1.96690e-06    5.16771e+00    2.29670e+00    5.74955e-01    5.74152e-01    5.73554e-01    5.74134e-01    1.43679e-01    1.43427e-01    1.43344e-01    1.43770e-01    2.92290e+00    9.86663e-01    7.30724e-01    5.41552e-01    7.30724e-01    2.46666e-01    1.35388e-01    1.35388e-01    2.46666e-01
    3.60000e+01    1.00000e+00    3.04523e-04    1.77473e-05    5.16729e+00    2.29651e+00    5.74767e-01    5.74105e-01    5.73705e-01    5.74031e-01    1.43641e-01    1.43453e-01    1.43377e-01    1.43700e-01    2.92290e+00    9.86663e-01    7.30724e-01    5.41552e-01    7.30724e-01    2.46666e-01    1.35388e-01    1.35388e-01    2.46666e-01
    3.70000e+01    1.00000e+00    1.86669e-04    2.22245e-05    5.16698e+00    2.29637e+00    5.74538e-01    5.74073e-01    5.73885e-01    5.73980e-01    1.43595e-01    1.43481e-01    1.43429e-01    1.43626e-01    2.92290e+00    9.86663e-01    7.30724e-01    5.41552e-01    7.30724e-01    2.46666e-01    1.35388e-01    1.35388e-01    2.46666e-01
    3.80000e+01    1.00000e+00    7.89583e-05    1.77168e-06    5.16679e+00    2.29629e+00    5.74300e-01    5.74043e-01    5.74024e-01    5.74020e-01    1.43559e-01    1.43492e-01    1.43500e-01    1.43565e-01    2.92290e+00    9.86663e-01    7.30724e-01    5.41552e-01    7.30724e-01    2.46666e-01    1.35388e-01    1.35388e-01    2.46666e-01
    3.90000e+01    1.00000e+00    0.00000e+00    0.00000e+00    5.16673e+00    2.29626e+00    5.74127e-01    5.74027e-01    5.74127e-01    5.74085e-01    1.43515e-01    1.43537e-01    1.43515e-01    1.43537e-01    2.92290e+00    9.86663e-01    7.30724e-01    5.41552e-01    7.30724e-01    2.46666e-01    1.35388e-01    1.35388e-01    2.46666e-01
    0.00000e+00    2.00000e+00    0.00000e+00    0.00000e+00    5.18854e+00    2.30607e+00    5.76482e-01    5.76505e-01    5.76482e-01    5.76523e-01    1.44113e-01    1.44127e-01    1.44113e-01    1.44127e-01    2.92290e+00    9.86663e-01    7.30724e-01    5.41552e-01    7.30724e-01    2.46666e-01    1.35388e-01    1.35388e-01    2.46666e-01
    1.00000e+00    2.00000e+00    1.35384e-05    4.39350e-05    5.18852e+00    2.30606e+00    5.76542e-01    5.76551e-01    5.76508e-01    5.76389e-01    1.44141e-01    1.44129e-01    1.44090e-01    1.44114e-01    2.92290e+00    9.86663e-01    7.30724e-01    5.41552e-01    7.30724e-01    2.46666e-01    1.35388e-01    1.35388e-01    2.46666e-01
    2.00000e+00    2.00000e+00   -3.16633e-05    1.01969e-04    5.18840e+00    2.30600e+00    5.76524e-01    5.76576e-01    5.76632e-01    5.76210e-01    1.44157e-01    1.44151e-01    1.44104e-01    1.44041e-01    2.92290e+00    9.86663e-01    7.30724e-01    5.41552e-01    7.30724e-01    2.46666e-01    1.35388e-01    1.35388e-01    2.46666e-01
    3.00000e+00    2.00000e+00   -1.40467e-04    1.68185e-04    5.18822e+00    2.30592e+00    5.76368e-01    5.76608e-01    5.76862e-01    5.76015e-01    1.44160e-01    1.44200e-01    1.44138e-01    1.43943e-01    2.92290e+00    9.86663e-01    7.30724e-01    5.41552e-01    7.30724e-01    2.46666e-01    1.35388e-01    1.35388e-01    2.46666e-01
    4.00000e+00    2.00000e+00   -3.09857e-04    2.36690e-04    5.18799e+00    2.30582e+00    5.76112e-01    5.76646e-01    5.77184e-01    5.75816e-01    1.44147e-01    1.44260e-01    1.44215e-01    1.43794e-01    2.92290e+00    9.86663e-01    7.30724e-01    5.41552e-01    7.30724e-01    2.46666e-01    1.35388e-01    1.35388e-01    2.46666e-01
    5.00000e+00    2.00000e+00   -5.30963e-04    2.84294e-04    5.18772e+00    2.30569e+00    5.75739e-01    5.76652e-01    5.77579e-01    5.75658e-01    1.44105e-01    1.44333e-01    1.44322e-01    1.43636e-01    2.92290e+00    9.86663e-01    7.30724e-01    5.41552e-01    7.30724e-01    2.46666e-01    1.35388e-01    1.35388e-01    2.46666e-01