TITLE="LBM output"
VARIABLES = "X", "Y", "U","V","density","f0","f1","f2","f3","f4","f5","f6","f7","f8","feq0","feq1","feq2","feq3","feq4","feq5","feq6","feq7","feq8",
ZONE T = "fluid", I=40, J=40, F=POINT
SOLUTIONTIME=673
    0.00000e+00    0.00000e+00    0.00000e+00    0.00000e+00    5.09317e+00    2.26366e+00    5.65904e-01    5.65903e-01    5.65904e-01    5.65903e-01    1.41466e-01    1.41479e-01    1.41466e-01    1.41479e-01    2.84798e+00    9.61372e-01    7.11994e-01    5.27671e-01    7.11994e-01    2.40343e-01    1.31918e-01    1.31918e-01    2.40343e-01
    1.00000e+00    0.00000e+00    0.00000e+00    0.00000e+00    5.09292e+00    2.26357e+00    5.65920e-01    5.65874e-01    5.65875e-01    5.65874e-01    1.41427e-01    1.41475e-01    1.41427e-01    1.41475e-01    2.84798e+00    9.61372e-01    7.11994e-01    5.27671e-01    7.11994e-01    2.40343e-01    1.31918e-01    1.31918e-01    2.40343e-01
    2.00000e+00    0.00000e+00    0.00000e+00    0.00000e+00    5.09251e+00    2.26339e+00    5.65883e-01    5.65817e-01    5.65817e-01    5.65817e-01    1.41409e-01    1.41484e-01    1.41409e-01    1.41484e-01    2.84798e+00    9.61372e-01    7.11994e-01    5.27671e-01    7.11994e-01    2.40343e-01    1.31918e-01    1.31918e-01    2.40343e-01
    3.00000e+00    0.00000e+00    0.00000e+00    0.00000e+00    5.09211e+00    2.26320e+00    5.65808e-01    5.65798e-01    5.65775e-01    5.65798e-01    1.41385e-01    1.41480e-01    1.41385e-01    1.41480e-01    2.84798e+00    9.61372e-01    7.11994e-01    5.27671e-01    7.11994e-01    2.40343e-01    1.31918e-01    1.31918e-01    2.40343e-01
    4.00000e+00    0.00000e+00    0.00000e+00    0.00000e+00    5.09153e+00    2.26294e+00    5.65798e-01    5.65708e-01    5.65688e-01    5.65708e-01    1.41370e-01    1.41474e-01    1.41370e-01    1.41474e-01    2.84798e+00    9.61372e-01    7.11994e-01    5.27671e-01    7.11994e-01    2.40343e-01    1.31918e-01    1.31918e-01    2.40343e-01
    5.00000e+00    0.00000e+00    0.00000e+00    0.00000e+00    5.09083e+00    2.26262e+00    5.65685e-01    5.65637e-01    5.65615e-01    5.65637e-01    1.41363e-01    1.41451e-01    1.41363e-01    1.41451e-01    2.84798e+00    9.61372e-01    7.11994e-01    5.27671e-01    7.11994e-01    2.40343e-01    1.31918e-01    1.31918e-01    2.40343e-01
    6.00000e+00    0.00000e+00    0.00000e+00    0.00000e+00    5.09010e+00    2.26230e+00    5.65632e-01    5.65548e-01    5.65523e-01    5.65548e-01    1.41355e-01    1.41419e-01    1.41355e-01    1.41419e-01    2.84798e+00    9.61372e-01    7.11994e-01    5.27671e-01    7.11994e-01    2.40343e-01    1.31918e-01    1.31918e-01    2.40343e-01
    7.00000e+00    0.00000e+00    0.00000e+00    0.00000e+00    5.08927e+00    2.26193e+00    5.65529e-01    5.65459e-01    5.65431e-01    5.65459e-01    1.41346e-01    1.41384e-01    1.41346e-01    1.41384e-01    2.84798e+00    9.61372e-01    7.11994e-01    5.27671e-01    7.11994e-01    2.40343e-01    1.31918e-01    1.31918e-01    2.40343e-01
    8.00000e+00    0.00000e+00    0.00000e+00    0.00000e+00    5.08843e+00    2.26156e+00    5.65446e-01    5.65362e-01    5.65335e-01    5.65362e-01    1.41339e-01    1.41342e-01    1.41339e-01    1.41342e-01    2.84798e+00    9.61372e-01    7.11994e-01    5.27671e-01    7.11994e-01    2.40343e-01    1.31918e-01    1.31918e-01    2.40343e-01
    9.00000e+00    0.00000e+00    0.00000e+00    0.00000e+00    5.08756e+00    2.26118e+00    5.65346e-01    5.65265e-01    5.65241e-01    5.65265e-01    1.41329e-01    1.41305e-01    1.41329e-01    1.41305e-01    2.84798e+00    9.61372e-01    7.11994e-01    5.27671e-01    7.11994e-01    2.40343e-01    1.31918e-01    1.31918e-01    2.40343e-01
    1.00000e+01    0.00000e+00    0.00000e+00    0.00000e+00    5.08672e+00    2.26081e+00    5.65255e-01    5.65169e-01    5.65150e-01    5.65169e-01    1.41319e-01    1.41266e-01    1.41319e-01    1.41266e-01    2.84798e+00    9.61372e-01    7.11994e-01    5.27671e-01    7.11994e-01    2.40343e-01    1.31918e-01    1.31918e-01    2.40343e-01
    1.10000e+01    0.00000e+00    0.00000e+00    0.00000e+00    5.08590e+00    2.26044e+00    5.65161e-01    5.65077e-01    5.65062e-01    5.65077e-01    1.41307e-01    1.41230e-01    1.41307e-01    1.41230e-01    2.84798e+00    9.61372e-01    7.11994e-01    5.27671e-01    7.11994e-01    2.40343e-01    1.31918e-01    1.31918e-01    2.40343e-01
    1.20000e+01    0.00000e+00    0.00000e+00    0.00000e+00    5.08512e+00    2.26010e+00    5.65073e-01    5.64991e-01    5.64978e-01    5.64991e-01    1.41296e-01    1.41198e-01    1.41296e-01    1.41198e-01    2.84798e+00    9.61372e-01    7.11994e-01    5.27671e-01    7.11994e-01    2.40343e-01    1.31918e-01    1.31918e-01    2.40343e-01
    1.30000e+01    0.00000e+00    0.00000e+00    0.00000e+00    5.08439e+00    2.25977e+00    5.64987e-01    5.64913e-01    5.64900e-01    5.64913e-01    1.41283e-01    1.41170e-01    1.41283e-01    1.41170e-01    2.84798e+00    9.61372e-01    7.11994e-01    5.27671e-01    7.11994e-01    2.40343e-01    1.31918e-01    1.31918e-01    2.40343e-01
    1.40000e+01    0.00000e+00    0.00000e+00    0.00000e+00    5.08372e+00    2.25947e+00    5.64908e-01    5.64841e-01    5.64826e-01    5.64841e-01    1.41272e-01    1.41144e-01    1.41272e-01    1.41144e-01    2.84798e+00    9.61372e-01    7.11994e-01    5.27671e-01    7.11994e-01    2.40343e-01    1.31918e-01    1.31918e-01    2.40343e-01
    1.50000e+01    0.00000e+00    0.00000e+00    0.00000e+00    5.08308e+00    2.25918e+00    5.64832e-01    5.64777e-01    5.64756e-01    5.64777e-01    1.41262e-01    1.41122e-01    1.41262e-01    1.41122e-01    2.84798e+00    9.61372e-01    7.11994e-01    5.27671e-01    7.11994e-01    2.40343e-01    1.31918e-01    1.31918e-01    2.40343e-01
    1.60000e+01    0.00000e+00    0.00000e+00    0.00000e+00    5.08249e+00    2.25890e+00    5.64761e-01    5.64718e-01    5.64688e-01    5.64718e-01    1.41252e-01    1.41102e-01    1.41252e-01    1.41102e-01    2.84798e+00    9.61372e-01    7.11994e-01    5.27671e-01    7.11994e-01    2.40343e-01    1.31918e-01    1.31918e-01    2.40343e-01
    1.70000e+01    0.00000e+00    0.00000e+00    0.00000e+00    5.08193e+00    2.25863e+00    5.64692e-01    5.64665e-01    5.64622e-01    5.64665e-01    1.41245e-01    1.41083e-01    1.41245e-01    1.41083e-01    2.84798e+00    9.61372e-01    7.11994e-01    5.27671e-01    7.11994e-01    2.40343e-01    1.31918e-01    1.31918e-01    2.40343e-01
    1.80000e+01    0.00000e+00    0.00000e+00    0.00000e+00    5.08137e+00    2.25836e+00    5.64625e-01    5.64612e-01    5.64554e-01    5.64612e-01    1.41241e-01    1.41064e-01    1.41241e-01    1.41064e-01    2.84798e+00    9.61372e-01    7.11994e-01    5.27671e-01    7.11994e-01    2.40343e-01    1.31918e-01    1.31918e-01    2.40343e-01
    1.90000e+01    0.00000e+00    0.00000e+00    0.00000e+00    5.08081e+00    2.25809e+00    5.64557e-01    5.64561e-01    5.64486e-01    5.64561e-01    1.41237e-01    1.41044e-01    1.41237e-01    1.41044e-01    2.84798e+00    9.61372e-01    7.11994e-01    5.27671e-01    7.11994e-01    2.40343e-01    1.31918e-01    1.31918e-01    2.40343e-01
    2.00000e+01    0.00000e+00    0.00000e+00    0.00000e+00    5.08024e+00    2.25781e+00    5.64489e-01    5.64508e-01    5.64415e-01    5.64508e-01    1.41234e-01    1.41023e-01    1.41234e-01    1.41023e-01    2.84798e+00    9.61372e-01    7.11994e-01    5.27671e-01    7.11994e-01    2.40343e-01    1.31918e-01    1.31918e-01    2.40343e-01
    2.10000e+01    0.00000e+00    0.00000e+00    0.00000e+00    5.07964e+00    2.25752e+00    5.64418e-01    5.64451e-01    5.64341e-01    5.64451e-01    1.41232e-01    1.40998e-01    1.41232e-01    1.40998e-01    2.84798e+00    9.61372e-01    7.11994e-01    5.27671e-01    7.11994e-01    2.40343e-01    1.31918e-01    1.31918e-01    2.40343e-01
    2.20000e+01    0.00000e+00    0.00000e+00    0.00000e+00    5.07902e+00    2.25722e+00    5.64346e-01    5.64390e-01    5.64265e-01    5.64390e-01    1.41229e-01    1.40973e-01    1.41229e-01    1.40973e-01    2.84798e+00    9.61372e-01    7.11994e-01    5.27671e-01    7.11994e-01    2.40343e-01    1.31918e-01    1.31918e-01    2.40343e-01
    2.30000e+01    0.00000e+00    0.00000e+00    0.00000e+00    5.07836e+00    2.25691e+00    5.64270e-01    5.64324e-01    5.64186e-01    5.64324e-01    1.41225e-01    1.40946e-01    1.41225e-01    1.40946e-01    2.84798e+00    9.61372e-01    7.11994e-01    5.27671e-01    7.11994e-01    2.40343e-01    1.31918e-01    1.31918e-01    2.40343e-01
    2.40000e+01    0.00000e+00    0.00000e+00    0.00000e+00    5.07767e+00    2.25660e+00    5.64193e-01    5.64253e-01    5.64105e-01    5.64253e-01    1.41219e-01    1.40918e-01    1.41219e-01    1.40918e-01    2.84798e+00    9.61372e-01    7.11994e-01    5.27671e-01    7.11994e-01    2.40343e-01    1.31918e-01    1.31918e-01    2.40343e-01
    2.50000e+01    0.00000e+00    0.00000e+00    0.00000e+00    5.07696e+00    2.25627e+00    5.64113e-01    5.64176e-01    5.64024e-01    5.64176e-01    1.41210e-01    1.40890e-01    1.41210e-01    1.40890e-01    2.84798e+00    9.61372e-01    7.11994e-01    5.27671e-01    7.11994e-01    2.40343e-01    1.31918e-01    1.31918e-01    2.40343e-01
    2.60000e+01    0.00000e+00    0.00000e+00    0.00000e+00    5.07624e+00    2.25595e+00    5.64033e-01    5.64096e-01    5.63942e-01    5.64096e-01    1.41196e-01    1.40864e-01    1.41196e-01    1.40864e-01    2.84798e+00    9.61372e-01    7.11994e-01    5.27671e-01    7.11994e-01    2.40343e-01    1.31918e-01    1.31918e-01    2.40343e-01
    2.70000e+01    0.00000e+00    0.00000e+00    0.00000e+00    5.07551e+00    2.25563e+00    5.63953e-01    5.64013e-01    5.63864e-01    5.64013e-01    1.41177e-01    1.40841e-01    1.41177e-01    1.40841e-01    2.84798e+00    9.61372e-01    7.11994e-01    5.27671e-01    7.11994e-01    2.40343e-01    1.31918e-01    1.31918e-01    2.40343e-01
    2.80000e+01    0.00000e+00    0.00000e+00    0.00000e+00    5.07479e+00    2.25533e+00    5.63875e-01    5.63929e-01    5.63787e-01    5.63929e-01    1.41153e-01    1.40821e-01    1.41153e-01    1.40821e-01    2.84798e+00    9.61372e-01    7.11994e-01    5.27671e-01    7.11994e-01    2.40343e-01    1.31918e-01    1.31918e-01    2.40343e-01
    2.90000e+01    0.00000e+00    0.00000e+00    0.00000e+00    5.07410e+00    2.25503e+00    5.63799e-01    5.63845e-01    5.63716e-01    5.63845e-01    1.41124e-01    1.40805e-01    1.41124e-01    1.40805e-01    2.84798e+00    9.61372e-01    7.11994e-01    5.27671e-01    7.11994e-01    2.40343e-01    1.31918e-01    1.31918e-01    2.40343e-01
    3.00000e+01    0.00000e+00    0.00000e+00    0.00000e+00    5.07343e+00    2.25476e+00    5.63728e-01    5.63763e-01    5.63649e-01    5.63763e-01    1.41089e-01    1.40796e-01    1.41089e-01    1.40796e-01    2.84798e+00    9.61372e-01    7.11994e-01    5.27671e-01    7.11994e-01    2.40343e-01    1.31918e-01    1.31918e-01    2.40343e-01
    3.10000e+01    0.00000e+00    0.00000e+00    0.00000e+00    5.07281e+00    2.25450e+00    5.63661e-01    5.63684e-01    5.63588e-01    5.63684e-01    1.41052e-01    1.40792e-01    1.41052e-01    1.40792e-01    2.84798e+00    9.61372e-01    7.11994e-01    5.27671e-01    7.11994e-01    2.40343e-01    1.31918e-01    1.31918e-01    2.40343e-01
    3.20000e+01    0.00000e+00    0.00000e+00    0.00000e+00    5.07223e+00    2.25427e+00    5.63601e-01    5.63611e-01    5.63534e-01    5.63611e-01    1.41010e-01    1.40793e-01    1.41010e-01    1.40793e-01    2.84798e+00    9.61372e-01    7.11994e-01    5.27671e-01    7.11994e-01    2.40343e-01    1.31918e-01    1.31918e-01    2.40343e-01
    3.30000e+01    0.00000e+00    0.00000e+00    0.00000e+00    5.07171e+00    2.25406e+00    5.63545e-01    5.63543e-01    5.63483e-01    5.63543e-01    1.40969e-01    1.40799e-01    1.40969e-01    1.40799e-01    2.84798e+00    9.61372e-01    7.11994e-01    5.27671e-01    7.11994e-01    2.40343e-01    1.31918e-01    1.31918e-01    2.40343e-01
    3.40000e+01    0.00000e+00    0.00000e+00    0.00000e+00    5.07126e+00    2.25388e+00    5.63496e-01    5.63481e-01    5.63451e-01    5.63481e-01    1.40928e-01    1.40807e-01    1.40928e-01    1.40807e-01    2.84798e+00    9.61372e-01    7.11994e-01    5.27671e-01    7.11994e-01    2.40343e-01    1.31918e-01    1.31918e-01    2.40343e-01
    3.50000e+01    0.00000e+00    0.00000e+00    0.00000e+00    5.07083e+00    2.25371e+00    5.63456e-01    5.63428e-01    5.63393e-01    5.63428e-01    1.40890e-01    1.40818e-01    1.40890e-01    1.40818e-01    2.84798e+00    9.61372e-01    7.11994e-01    5.27671e-01    7.11994e-01    2.40343e-01    1.31918e-01    1.31918e-01    2.40343e-01
    3.60000e+01    0.00000e+00    0.00000e+00    0.00000e+00    5.07057e+00    2.25361e+00    5.63410e-01    5.63368e-01    5.63412e-01    5.63368e-01    1.40874e-01    1.40824e-01    1.40874e-01    1.40824e-01    2.84798e+00    9.61372e-01    7.11994e-01    5.27671e-01    7.11994e-01    2.40343e-01    1.31918e-01    1.31918e-01    2.40343e-01
    3.70000e+01    0.00000e+00    0.00000e+00    0.00000e+00    5.07027e+00    2.25349e+00    5.63401e-01    5.63354e-01    5.63321e-01    5.63354e-01    1.40847e-01    1.40827e-01    1.40847e-01    1.40827e-01    2.84798e+00    9.61372e-01    7.11994e-01    5.27671e-01    7.11994e-01    2.40343e-01    1.31918e-01    1.31918e-01    2.40343e-01
    3.80000e+01    0.00000e+00    0.00000e+00    0.00000e+00    5.07011e+00    2.25343e+00    5.63351e-01    5.63304e-01    5.63396e-01    5.63304e-01    1.40839e-01    1.40825e-01    1.40839e-01    1.40825e-01    2.84798e+00    9.61372e-01    7.11994e-01    5.27671e-01    7.11994e-01    2.40343e-01    1.31918e-01    1.31918e-01    2.40343e-01
    3.90000e+01    0.00000e+00    0.00000e+00    0.00000e+00    5.07030e+00    2.25352e+00    5.63365e-01    5.63365e-01    5.63365e-01    5.63365e-01    1.40845e-01    1.40813e-01    1.40845e-01    1.40813e-01    2.84798e+00    9.61372e-01    7.11994e-01    5.27671e-01    7.11994e-01    2.40343e-01    1.31918e-01    1.31918e-01    2.40343e-01
    0.00000e+00    1.00000e+00    0.00000e+00    0.00000e+00    5.09293e+00    2.26358e+00    5.65858e-01    5.65921e-01    5.65858e-01    5.65879e-01    1.41446e-01    1.41472e-01    1.41446e-01    1.41472e-01    2.84798e+00    9.61372e-01    7.11994e-01    5.27671e-01    7.11994e-01    2.40343e-01    1.31918e-01    1.31918e-01    2.40343e-01
    1.00000e+00    1.00000e+00    2.95373e-05    1.72496e-05    5.09278e+00    2.26351e+00    5.65909e-01    5.65894e-01    5.65810e-01    5.65836e-01    1.41480e-01    1.41447e-01    1.41439e-01    1.41458e-01    2.84798e+00    9.61372e-01    7.11994e-01    5.27671e-01    7.11994e-01    2.40343e-01    1.31918e-01    1.31918e-01    2.40343e-01
    2.00000e+00    1.00000e+00    4.56471e-05    2.94409e-05    5.09245e+00    2.26336e+00    5.65906e-01    5.65863e-01    5.65743e-01    5.65767e-01    1.41502e-01    1.41433e-01    1.41441e-01    1.41440e-01    2.84798e+00    9.61372e-01    7.11994e-01    5.27671e-01    7.11994e-01    2.40343e-01    1.31918e-01    1.31918e-01    2.40343e-01
    3.00000e+00    1.00000e+00    4.09250e-05    3.06771e-05    5.09202e+00    2.26316e+00    5.65890e-01    5.65789e-01    5.65742e-01    5.65679e-01    1.41494e-01    1.41409e-01    1.41441e-01    1.41415e-01    2.84798e+00    9.61372e-01    7.11994e-01    5.27671e-01    7.11994e-01    2.40343e-01    1.31918e-01    1.31918e-01    2.40343e-01
    4.00000e+00    1.00000e+00    5.69407e-06    5.00048e-05    5.09146e+00    2.26291e+00    5.65787e-01    5.65750e-01    5.65753e-01    5.65573e-01    1.41490e-01    1.41393e-01    1.41454e-01    1.41352e-01    2.84798e+00    9.61372e-01    7.11994e-01    5.27671e-01    7.11994e-01    2.40343e-01    1.31918e-01    1.31918e-01    2.40343e-01
    5.00000e+00    1.00000e+00   -5.11635e-05    5.69920e-05    5.09079e+00    2.26261e+00    5.65640e-01    5.65663e-01    5.65797e-01    5.65463e-01    1.41473e-01    1.41383e-01    1.41480e-01    1.41286e-01    2.84798e+00    9.61372e-01    7.11994e-01    5.27671e-01    7.11994e-01    2.40343e-01    1.31918e-01    1.31918e-01    2.40343e-01
    6.00000e+00    1.00000e+00   -1.23190e-04    6.09964e-05    5.09005e+00    2.26228e+00    5.65441e-01    5.65589e-01    5.65840e-01    5.65372e-01    1.41442e-01    1.41370e-01    1.41509e-01    1.41209e-01    2.84798e+00    9.61372e-01    7.11994e-01    5.27671e-01    7.11994e-01    2.40343e-01    1.31918e-01    1.31918e-01    2.40343e-01
    7.00000e+00    1.00000e+00   -1.99744e-04    6.31809e-05    5.08924e+00    2.26192e+00    5.65225e-01    5.65496e-01    5.65884e-01    5.65271e-01    1.41411e-01    1.41362e-01    1.41542e-01    1.41135e-01    2.84798e+00    9.61372e-01    7.11994e-01    5.27671e-01    7.11994e-01    2.40343e-01    1.31918e-01    1.31918e-01    2.40343e-01
    8.00000e+00    1.00000e+00   -2.78866e-04    6.57530e-05    5.08840e+00    2.26155e+00    5.65001e-01    5.65406e-01    5.65925e-01    5.65173e-01    1.41377e-01    1.41349e-01    1.41574e-01    1.41051e-01    2.84798e+00    9.61372e-01    7.11994e-01    5.27671e-01    7.11994e-01    2.40343e-01    1.31918e-01    1.31918e-01    2.40343e-01
    9.00000e+00    1.00000e+00   -3.56488e-04    6.62211e-05    5.08755e+00    2.26117e+00    5.64771e-01    5.65314e-01    5.65958e-01    5.65080e-01    1.41341e-01    1.41338e-01    1.41603e-01    1.40973e-01    2.84798e+00    9.61372e-01    7.11994e-01    5.27671e-01    7.11994e-01    2.40343e-01    1.31918e-01    1.31918e-01    2.40343e-01
    1.00000e+01    1.00000e+00   -4.29002e-04    6.63452e-05    5.08671e+00    2.26080e+00    5.64551e-01    5.65223e-01    5.65982e-01    5.64989e-01    1.41308e-01    1.41325e-01    1.41632e-01    1.40897e-01    2.84798e+00    9.61372e-01    7.11994e-01    5.27671e-01    7.11994e-01    2.40343e-01    1.31918e-01    1.31918e-01    2.40343e-01
    1.10000e+01    1.00000e+00   -4.94871e-04    6.46214e-05    5.08589e+00    2.26044e+00    5.64343e-01    5.65134e-01    5.65995e-01    5.64907e-01    1.41275e-01    1.41310e-01    1.41657e-01    1.40828e-01    2.84798e+00    9.61372e-01    7.11994e-01    5.27671e-01    7.11994e-01    2.40343e-01    1.31918e-01    1.31918e-01    2.40343e-01
    1.20000e+01    1.00000e+00   -5.53613e-04    6.12449e-05    5.08511e+00    2.26009e+00    5.64152e-01    5.65048e-01    5.66001e-01    5.64834e-01    1.41245e-01    1.41295e-01    1.41680e-01    1.40764e-01    2.84798e+00    9.61372e-01    7.11994e-01    5.27671e-01    7.11994e-01    2.40343e-01    1.31918e-01    1.31918e-01    2.40343e-01
    1.30000e+01    1.00000e+00   -6.05434e-04    5.55989e-05    5.08438e+00    2.25977e+00    5.63977e-01    5.64965e-01    5.66000e-01    5.64769e-01    1.41218e-01    1.41279e-01    1.41701e-01    1.40708e-01    2.84798e+00    9.61372e-01    7.11994e-01    5.27671e-01    7.11994e-01    2.40343e-01    1.31918e-01    1.31918e-01    2.40343e-01
    1.40000e+01    1.00000e+00   -6.51119e-04    4.80389e-05    5.08371e+00    2.25946e+00    5.63819e-01    5.64884e-01    5.65994e-01    5.64715e-01    1.41193e-01    1.41262e-01    1.41723e-01    1.40658e-01    2.84798e+00    9.61372e-01    7.11994e-01    5.27671e-01    7.11994e-01    2.40343e-01    1.31918e-01    1.31918e-01    2.40343e-01
    1.50000e+01    1.00000e+00   -6.92080e-04    3.74429e-05    5.08307e+00    2.25917e+00    5.63674e-01    5.64805e-01    5.65986e-01    5.64672e-01    1.41169e-01    1.41245e-01    1.41742e-01    1.40614e-01    2.84798e+00    9.61372e-01    7.11994e-01    5.27671e-01    7.11994e-01    2.40343e-01    1.31918e-01    1.31918e-01    2.40343e-01
    1.60000e+01    1.00000e+00   -7.29811e-04    2.46431e-05    5.08248e+00    2.25889e+00    5.63539e-01    5.64726e-01    5.65978e-01    5.64637e-01    1.41145e-01    1.41229e-01    1.41763e-01    1.40576e-01    2.84798e+00    9.61372e-01    7.11994e-01    5.27671e-01    7.11994e-01    2.40343e-01    1.31918e-01    1.31918e-01    2.40343e-01
    1.70000e+01    1.00000e+00   -7.65532e-04    1.01402e-05    5.08192e+00    2.25862e+00    5.63410e-01    5.64648e-01    5.65968e-01    5.64607e-01    1.41122e-01    1.41214e-01    1.41783e-01    1.40543e-01    2.84798e+00    9.61372e-01    7.11994e-01    5.27671e-01    7.11994e-01    2.40343e-01    1.31918e-01    1.31918e-01    2.40343e-01
    1.80000e+01    1.00000e+00   -8.00177e-04   -6.24787e-06    5.08136e+00    2.25835e+00    5.63285e-01    5.64569e-01    5.65959e-01    5.64584e-01    1.41098e-01    1.41199e-01    1.41802e-01    1.40512e-01    2.84798e+00    9.61372e-01    7.11994e-01    5.27671e-01    7.11994e-01    2.40343e-01    1.31918e-01    1.31918e-01    2.40343e-01
    1.90000e+01    1.00000e+00   -8.34159e-04   -2.41967e-05    5.08081e+00    2.25808e+00    5.63159e-01    5.64489e-01    5.65949e-01    5.64564e-01    1.41072e-01    1.41186e-01    1.41820e-01    1.40485e-01    2.84798e+00    9.61372e-01    7.11994e-01    5.27671e-01    7.11994e-01    2.40343e-01    1.31918e-01    1.31918e-01    2.40343e-01
    2.00000e+01    1.00000e+00   -8.67048e-04   -4.20199e-05    5.08024e+00    2.25781e+00    5.63034e-01    5.64407e-01    5.65935e-01    5.64543e-01    1.41044e-01    1.41174e-01    1.41835e-01    1.40461e-01    2.84798e+00    9.61372e-01    7.11994e-01    5.27671e-01    7.11994e-01    2.40343e-01    1.31918e-01    1.31918e-01    2.40343e-01
    2.10000e+01    1.00000e+00   -8.97810e-04   -5.98490e-05    5.07965e+00    2.25752e+00    5.62907e-01    5.64324e-01    5.65914e-01    5.64520e-01    1.41015e-01    1.41162e-01    1.41846e-01    1.40439e-01    2.84798e+00    9.61372e-01    7.11994e-01    5.27671e-01    7.11994e-01    2.40343e-01    1.31918e-01    1.31918e-01    2.40343e-01
    2.20000e+01    1.00000e+00   -9.24826e-04   -7.74963e-05    5.07903e+00    2.25723e+00    5.62783e-01    5.64240e-01    5.65882e-01    5.64496e-01    1.40983e-01    1.41150e-01    1.41851e-01    1.40419e-01    2.84798e+00    9.61372e-01    7.11994e-01    5.27671e-01    7.11994e-01    2.40343e-01    1.31918e-01    1.31918e-01    2.40343e-01
    2.30000e+01    1.00000e+00   -9.45760e-04   -9.34181e-05    5.07838e+00    2.25692e+00    5.62663e-01    5.64155e-01    5.65835e-01    5.64465e-01    1.40951e-01    1.41138e-01    1.41848e-01    1.40404e-01    2.84798e+00    9.61372e-01    7.11994e-01    5.27671e-01    7.11994e-01    2.40343e-01    1.31918e-01    1.31918e-01    2.40343e-01
    2.40000e+01    1.00000e+00   -9.57958e-04   -1.07051e-04    5.07770e+00    2.25661e+00    5.62553e-01    5.64070e-01    5.65769e-01    5.64428e-01    1.40919e-01    1.41125e-01    1.41835e-01    1.40394e-01    2.84798e+00    9.61372e-01    7.11994e-01    5.27671e-01    7.11994e-01    2.40343e-01    1.31918e-01    1.31918e-01    2.40343e-01
    2.50000e+01    1.00000e+00   -9.58728e-04   -1.18886e-04    5.07700e+00    2.25629e+00    5.62458e-01    5.63987e-01    5.65680e-01    5.64387e-01    1.40887e-01    1.41111e-01    1.41811e-01    1.40390e-01    2.84798e+00    9.61372e-01    7.11994e-01    5.27671e-01    7.11994e-01    2.40343e-01    1.31918e-01    1.31918e-01    2.40343e-01
    2.60000e+01    1.00000e+00   -9.45441e-04   -1.27660e-04    5.07628e+00    2.25596e+00    5.62384e-01    5.63906e-01    5.65564e-01    5.64338e-01    1.40857e-01    1.41095e-01    1.41774e-01    1.40394e-01    2.84798e+00    9.61372e-01    7.11994e-01    5.27671e-01    7.11994e-01    2.40343e-01    1.31918e-01    1.31918e-01    2.40343e-01
    2.70000e+01    1.00000e+00   -9.15870e-04   -1.32702e-04    5.07555e+00    2.25565e+00    5.62336e-01    5.63830e-01    5.65420e-01    5.64281e-01    1.40831e-01    1.41077e-01    1.41725e-01    1.40406e-01    2.84798e+00    9.61372e-01    7.11994e-01    5.27671e-01    7.11994e-01    2.40343e-01    1.31918e-01    1.31918e-01    2.40343e-01
    2.80000e+01    1.00000e+00   -8.68662e-04   -1.34483e-04    5.07484e+00    2.25534e+00    5.62320e-01    5.63758e-01    5.65247e-01    5.64218e-01    1.40809e-01    1.41057e-01    1.41661e-01    1.40428e-01    2.84798e+00    9.61372e-01    7.11994e-01    5.27671e-01    7.11994e-01    2.40343e-01    1.31918e-01    1.31918e-01    2.40343e-01
    2.90000e+01    1.00000e+00   -8.03485e-04   -1.32737e-04    5.07414e+00    2.25504e+00    5.62337e-01    5.63693e-01    5.65047e-01    5.64149e-01    1.40793e-01    1.41033e-01    1.41585e-01    1.40458e-01    2.84798e+00    9.61372e-01    7.11994e-01    5.27671e-01    7.11994e-01    2.40343e-01    1.31918e-01    1.31918e-01    2.40343e-01
    3.00000e+01    1.00000e+00   -7.21309e-04   -1.26777e-04    5.07347e+00    2.25476e+00    5.62390e-01    5.63633e-01    5.64824e-01    5.64072e-01    1.40783e-01    1.41008e-01    1.41498e-01    1.40497e-01    2.84798e+00    9.61372e-01    7.11994e-01    5.27671e-01    7.11994e-01    2.40343e-01    1.31918e-01    1.31918e-01    2.40343e-01
    3.10000e+01    1.00000e+00   -6.24375e-04   -1.17048e-04    5.07284e+00    2.25451e+00    5.62476e-01    5.63581e-01    5.64584e-01    5.63989e-01    1.40780e-01    1.40980e-01    1.41402e-01    1.40544e-01    2.84798e+00    9.61372e-01    7.11994e-01    5.27671e-01    7.11994e-01    2.40343e-01    1.31918e-01    1.31918e-01    2.40343e-01
    3.20000e+01    1.00000e+00   -5.17022e-04   -1.03766e-04    5.07227e+00    2.25427e+00    5.62590e-01    5.63535e-01    5.64338e-01    5.63899e-01    1.40781e-01    1.40952e-01    1.41299e-01    1.40596e-01    2.84798e+00    9.61372e-01    7.11994e-01    5.27671e-01    7.11994e-01    2.40343e-01    1.31918e-01    1.31918e-01    2.40343e-01
    3.30000e+01    1.00000e+00   -4.04756e-04   -8.69315e-05    5.07174e+00    2.25407e+00    5.62725e-01    5.63495e-01    5.64093e-01    5.63803e-01    1.40789e-01    1.40925e-01    1.41198e-01    1.40649e-01    2.84798e+00    9.61372e-01    7.11994e-01    5.27671e-01    7.11994e-01    2.40343e-01    1.31918e-01    1.31918e-01    2.40343e-01
    3.40000e+01    1.00000e+00   -2.92730e-04   -6.81837e-05    5.07128e+00    2.25388e+00    5.62871e-01    5.63465e-01    5.63862e-01    5.63708e-01    1.40799e-01    1.40896e-01    1.41097e-01    1.40700e-01    2.84798e+00    9.61372e-01    7.11994e-01    5.27671e-01    7.11994e-01    2.40343e-01    1.31918e-01    1.31918e-01    2.40343e-01
    3.50000e+01    1.00000e+00   -1.91060e-04   -4.43302e-05    5.07088e+00    2.25373e+00    5.63020e-01    5.63430e-01    5.63667e-01    5.63595e-01    1.40813e-01    1.40879e-01    1.41003e-01    1.40748e-01    2.84798e+00    9.61372e-01    7.11994e-01    5.27671e-01    7.11994e-01    2.40343e-01    1.31918e-01    1.31918e-01    2.40343e-01
    3.60000e+01    1.00000e+00   -1.06485e-04   -1.30275e-05    5.07057e+00    2.25360e+00    5.63147e-01    5.63433e-01    5.63511e-01    5.63483e-01    1.40825e-01    1.40861e-01    1.40921e-01    1.40781e-01    2.84798e+00    9.61372e-01    7.11994e-01    5.27671e-01    7.11994e-01    2.40343e-01    1.31918e-01    1.31918e-01    2.40343e-01
    3.70000e+01    1.00000e+00   -5.94064e-05    8.71891e-06    5.07034e+00    2.25352e+00    5.63257e-01    5.63389e-01    5.63467e-01    5.63368e-01    1.40828e-01    1.40855e-01    1.40861e-01    1.40798e-01    2.84798e+00    9.61372e-01    7.11994e-01    5.27671e-01    7.11994e-01    2.40343e-01    1.31918e-01    1.31918e-01    2.40343e-01
    3.80000e+01    1.00000e+00   -3.71051e-05    3.58050e-05    5.07019e+00    2.25346e+00    5.63281e-01    5.63403e-01    5.63397e-01    5.63294e-01    1.40838e-01    1.40874e-01    1.40837e-01    1.40803e-01    2.84798e+00    9.61372e-01    7.11994e-01    5.27671e-01    7.11994e-01    2.40343e-01    1.31918e-01    1.31918e-01    2.40343e-01
    3.90000e+01    1.00000e+00    0.00000e+00    0.00000e+00    5.07009e+00    2.25342e+00    5.63310e-01    5.63395e-01    5.63310e-01    5.63344e-01    1.40839e-01    1.40818e-01    1.40839e-01    1.40818e-01    2.84798e+00    9.61372e-01    7.11994e-01    5.27671e-01    7.11994e-01    2.40343e-01    1.31918e-01    1.31918e-01    2.40343e-01
    0.00000e+00    2.00000e+00    0.00000e+00    0.00000e+00    5.09264e+00    2.26344e+00    5.65826e-01    5.65885e-01    5.65826e-01    5.65845e-01    1.41432e-01    1.41476e-01    1.41432e-01    1.41476e-01    2.84798e+00    9.61372e-01    7.11994e-01    5.27671e-01    7.11994e-01    2.40343e-01    1.31918e-01    1.31918e-01    2.40343e-01
    1.00000e+00    2.00000e+00    5.08415e-06    5.82294e-05    5.09256e+00    2.26340e+00    5.65881e-01    5.65887e-01    5.65878e-01    5.65679e-01    1.41489e-01    1.41472e-01    1.41433e-01    1.41439e-01    2.84798e+00    9.61372e-01    7.11994e-01    5.27671e-01    7.11994e-01    2.40343e-01    1.31918e-01    1.31918e-01    2.40343e-01
    2.00000e+00    2.00000e+00   -4.43927e-05    8.97133e-05    5.09229e+00    2.26328e+00    5.65810e-01    5.65886e-01    5.65960e-01    5.65572e-01    1.41484e-01    1.41478e-01    1.41451e-01    1.41368e-01    2.84798e+00    9.61372e-01    7.11994e-01    5.27671e-01    7.11994e-01    2.40343e-01    1.31918e-01    1.31918e-01    2.40343e-01
    3.00000e+00    2.00000e+00   -1.29034e-04    1.27180e-04    5.09185e+00    2.26308e+00    5.65648e-01    5.65865e-01    5.66091e-01    5.65424e-01    1.41466e-01    1.41508e-01    1.41470e-01    1.41298e-01    2.84798e+00    9.61372e-01    7.11994e-01    5.27671e-01    7.11994e-01    2.40343e-01    1.31918e-01    1.31918e-01    2.40343e-01
    4.00000e+00    2.00000e+00   -2.49660e-04    1.67210e-04    5.09131e+00    2.26284e+00    5.65415e-01    5.65841e-01    5.66267e-01    5.65264e-01    1.41444e-01    1.41534e-01    1.41517e-01    1.41187e-01    2.84798e+00    9.61372e-01    7.11994e-01    5.27671e-01    7.11994e-01    2.40343e-01    1.31918e-01    1.31918e-01    2.40343e-01
    5.00000e+00    2.00000e+00   -3.95614e-04    1.95419e-04    5.09067e+00    2.26255e+00    5.65108e-01    5.65800e-01    5.66459e-01    5.65129e-01    1.41406e-01    1.41566e-01    1.41576e-01    1.41073e-01    2.84798e+00    9.61372e-01    7.11994e-01    5.27671e-01    7.11994e-01    2.40343e-01    1.31918e-01    1.31918e-01    2.40343e-01