TITLE="LBM output"
VARIABLES = "X", "Y", "U","V","density","f0","f1","f2","f3","f4","f5","f6","f7","f8","feq0","feq1","feq2","feq3","feq4","feq5","feq6","feq7","feq8",
ZONE T = "fluid", I=40, J=40, F=POINT
SOLUTIONTIME=1112
    0.00000e+00    0.00000e+00    0.00000e+00    0.00000e+00    5.14011e+00    2.28461e+00    5.71117e-01    5.71118e-01    5.71117e-01    5.71118e-01    1.42730e-01    1.42788e-01    1.42730e-01    1.42788e-01    2.90033e+00    9.79045e-01    7.25083e-01    5.37371e-01    7.25083e-01    2.44761e-01    1.34343e-01    1.34343e-01    2.44761e-01
    1.00000e+00    0.00000e+00    0.00000e+00    0.00000e+00    5.13958e+00    2.28438e+00    5.71176e-01    5.71002e-01    5.71067e-01    5.71002e-01    1.42702e-01    1.42773e-01    1.42702e-01    1.42773e-01    2.90033e+00    9.79045e-01    7.25083e-01    5.37371e-01    7.25083e-01    2.44761e-01    1.34343e-01    1.34343e-01    2.44761e-01
    2.00000e+00    0.00000e+00    0.00000e+00    0.00000e+00    5.13930e+00    2.28426e+00    5.71039e-01    5.70995e-01    5.71064e-01    5.70995e-01    1.42678e-01    1.42795e-01    1.42678e-01    1.42795e-01    2.90033e+00    9.79045e-01    7.25083e-01    5.37371e-01    7.25083e-01    2.44761e-01    1.34343e-01    1.34343e-01    2.44761e-01
    3.00000e+00    0.00000e+00    0.00000e+00    0.00000e+00    5.13912e+00    2.28417e+00    5.71078e-01    5.70959e-01    5.71015e-01    5.70959e-01    1.42653e-01    1.42815e-01    1.42653e-01    1.42815e-01    2.90033e+00    9.79045e-01    7.25083e-01    5.37371e-01    7.25083e-01    2.44761e-01    1.34343e-01    1.34343e-01    2.44761e-01
    4.00000e+00    0.00000e+00    0.00000e+00    0.00000e+00    5.13871e+00    2.28399e+00    5.71018e-01    5.70917e-01    5.70977e-01    5.70917e-01    1.42642e-01    1.42804e-01    1.42642e-01    1.42804e-01    2.90033e+00    9.79045e-01    7.25083e-01    5.37371e-01    7.25083e-01    2.44761e-01    1.34343e-01    1.34343e-01    2.44761e-01
    5.00000e+00    0.00000e+00    0.00000e+00    0.00000e+00    5.13834e+00    2.28382e+00    5.70979e-01    5.70875e-01    5.70929e-01    5.70875e-01    1.42633e-01    1.42798e-01    1.42633e-01    1.42798e-01    2.90033e+00    9.79045e-01    7.25083e-01    5.37371e-01    7.25083e-01    2.44761e-01    1.34343e-01    1.34343e-01    2.44761e-01
    6.00000e+00    0.00000e+00    0.00000e+00    0.00000e+00    5.13790e+00    2.28362e+00    5.70936e-01    5.70826e-01    5.70876e-01    5.70826e-01    1.42631e-01    1.42778e-01    1.42631e-01    1.42778e-01    2.90033e+00    9.79045e-01    7.25083e-01    5.37371e-01    7.25083e-01    2.44761e-01    1.34343e-01    1.34343e-01    2.44761e-01
    7.00000e+00    0.00000e+00    0.00000e+00    0.00000e+00    5.13742e+00    2.28340e+00    5.70879e-01    5.70777e-01    5.70820e-01    5.70777e-01    1.42630e-01    1.42755e-01    1.42630e-01    1.42755e-01    2.90033e+00    9.79045e-01    7.25083e-01    5.37371e-01    7.25083e-01    2.44761e-01    1.34343e-01    1.34343e-01    2.44761e-01
    8.00000e+00    0.00000e+00    0.00000e+00    0.00000e+00    5.13691e+00    2.28317e+00    5.70827e-01    5.70722e-01    5.70759e-01    5.70722e-01    1.42633e-01    1.42725e-01    1.42633e-01    1.42725e-01    2.90033e+00    9.79045e-01    7.25083e-01    5.37371e-01    7.25083e-01    2.44761e-01    1.34343e-01    1.34343e-01    2.44761e-01
    9.00000e+00    0.00000e+00    0.00000e+00    0.00000e+00    5.13637e+00    2.28292e+00    5.70763e-01    5.70666e-01    5.70695e-01    5.70666e-01    1.42635e-01    1.42696e-01    1.42635e-01    1.42696e-01    2.90033e+00    9.79045e-01    7.25083e-01    5.37371e-01    7.25083e-01    2.44761e-01    1.34343e-01    1.34343e-01    2.44761e-01
    1.00000e+01    0.00000e+00    0.00000e+00    0.00000e+00    5.13581e+00    2.28266e+00    5.70703e-01    5.70606e-01    5.70629e-01    5.70606e-01    1.42639e-01    1.42663e-01    1.42639e-01    1.42663e-01    2.90033e+00    9.79045e-01    7.25083e-01    5.37371e-01    7.25083e-01    2.44761e-01    1.34343e-01    1.34343e-01    2.44761e-01
    1.10000e+01    0.00000e+00    0.00000e+00    0.00000e+00    5.13522e+00    2.28239e+00    5.70635e-01    5.70545e-01    5.70561e-01    5.70545e-01    1.42644e-01    1.42629e-01    1.42644e-01    1.42629e-01    2.90033e+00    9.79045e-01    7.25083e-01    5.37371e-01    7.25083e-01    2.44761e-01    1.34343e-01    1.34343e-01    2.44761e-01
    1.20000e+01    0.00000e+00    0.00000e+00    0.00000e+00    5.13462e+00    2.28212e+00    5.70568e-01    5.70481e-01    5.70490e-01    5.70481e-01    1.42649e-01    1.42593e-01    1.42649e-01    1.42593e-01    2.90033e+00    9.79045e-01    7.25083e-01    5.37371e-01    7.25083e-01    2.44761e-01    1.34343e-01    1.34343e-01    2.44761e-01
    1.30000e+01    0.00000e+00    0.00000e+00    0.00000e+00    5.13401e+00    2.28183e+00    5.70497e-01    5.70418e-01    5.70419e-01    5.70418e-01    1.42653e-01    1.42558e-01    1.42653e-01    1.42558e-01    2.90033e+00    9.79045e-01    7.25083e-01    5.37371e-01    7.25083e-01    2.44761e-01    1.34343e-01    1.34343e-01    2.44761e-01
    1.40000e+01    0.00000e+00    0.00000e+00    0.00000e+00    5.13338e+00    2.28155e+00    5.70426e-01    5.70353e-01    5.70347e-01    5.70353e-01    1.42658e-01    1.42522e-01    1.42658e-01    1.42522e-01    2.90033e+00    9.79045e-01    7.25083e-01    5.37371e-01    7.25083e-01    2.44761e-01    1.34343e-01    1.34343e-01    2.44761e-01
    1.50000e+01    0.00000e+00    0.00000e+00    0.00000e+00    5.13276e+00    2.28126e+00    5.70353e-01    5.70289e-01    5.70274e-01    5.70289e-01    1.42660e-01    1.42487e-01    1.42660e-01    1.42487e-01    2.90033e+00    9.79045e-01    7.25083e-01    5.37371e-01    7.25083e-01    2.44761e-01    1.34343e-01    1.34343e-01    2.44761e-01
    1.60000e+01    0.00000e+00    0.00000e+00    0.00000e+00    5.13213e+00    2.28097e+00    5.70281e-01    5.70224e-01    5.70202e-01    5.70224e-01    1.42661e-01    1.42455e-01    1.42661e-01    1.42455e-01    2.90033e+00    9.79045e-01    7.25083e-01    5.37371e-01    7.25083e-01    2.44761e-01    1.34343e-01    1.34343e-01    2.44761e-01
    1.70000e+01    0.00000e+00    0.00000e+00    0.00000e+00    5.13151e+00    2.28068e+00    5.70208e-01    5.70161e-01    5.70130e-01    5.70161e-01    1.42659e-01    1.42425e-01    1.42659e-01    1.42425e-01    2.90033e+00    9.79045e-01    7.25083e-01    5.37371e-01    7.25083e-01    2.44761e-01    1.34343e-01    1.34343e-01    2.44761e-01
    1.80000e+01    0.00000e+00    0.00000e+00    0.00000e+00    5.13089e+00    2.28039e+00    5.70137e-01    5.70099e-01    5.70059e-01    5.70099e-01    1.42654e-01    1.42398e-01    1.42654e-01    1.42398e-01    2.90033e+00    9.79045e-01    7.25083e-01    5.37371e-01    7.25083e-01    2.44761e-01    1.34343e-01    1.34343e-01    2.44761e-01
    1.90000e+01    0.00000e+00    0.00000e+00    0.00000e+00    5.13029e+00    2.28011e+00    5.70066e-01    5.70039e-01    5.69991e-01    5.70039e-01    1.42644e-01    1.42377e-01    1.42644e-01    1.42377e-01    2.90033e+00    9.79045e-01    7.25083e-01    5.37371e-01    7.25083e-01    2.44761e-01    1.34343e-01    1.34343e-01    2.44761e-01
    2.00000e+01    0.00000e+00    0.00000e+00    0.00000e+00    5.12971e+00    2.27984e+00    5.69997e-01    5.69981e-01    5.69925e-01    5.69981e-01    1.42630e-01    1.42362e-01    1.42630e-01    1.42362e-01    2.90033e+00    9.79045e-01    7.25083e-01    5.37371e-01    7.25083e-01    2.44761e-01    1.34343e-01    1.34343e-01    2.44761e-01
    2.10000e+01    0.00000e+00    0.00000e+00    0.00000e+00    5.12915e+00    2.27958e+00    5.69930e-01    5.69925e-01    5.69861e-01    5.69925e-01    1.42611e-01    1.42352e-01    1.42611e-01    1.42352e-01    2.90033e+00    9.79045e-01    7.25083e-01    5.37371e-01    7.25083e-01    2.44761e-01    1.34343e-01    1.34343e-01    2.44761e-01
    2.20000e+01    0.00000e+00    0.00000e+00    0.00000e+00    5.12862e+00    2.27934e+00    5.69867e-01    5.69873e-01    5.69801e-01    5.69873e-01    1.42586e-01    1.42350e-01    1.42586e-01    1.42350e-01    2.90033e+00    9.79045e-01    7.25083e-01    5.37371e-01    7.25083e-01    2.44761e-01    1.34343e-01    1.34343e-01    2.44761e-01
    2.30000e+01    0.00000e+00    0.00000e+00    0.00000e+00    5.12812e+00    2.27910e+00    5.69806e-01    5.69824e-01    5.69745e-01    5.69824e-01    1.42555e-01    1.42354e-01    1.42555e-01    1.42354e-01    2.90033e+00    9.79045e-01    7.25083e-01    5.37371e-01    7.25083e-01    2.44761e-01    1.34343e-01    1.34343e-01    2.44761e-01
    2.40000e+01    0.00000e+00    0.00000e+00    0.00000e+00    5.12766e+00    2.27889e+00    5.69750e-01    5.69779e-01    5.69693e-01    5.69779e-01    1.42521e-01    1.42365e-01    1.42521e-01    1.42365e-01    2.90033e+00    9.79045e-01    7.25083e-01    5.37371e-01    7.25083e-01    2.44761e-01    1.34343e-01    1.34343e-01    2.44761e-01
    2.50000e+01    0.00000e+00    0.00000e+00    0.00000e+00    5.12723e+00    2.27869e+00    5.69698e-01    5.69737e-01    5.69646e-01    5.69737e-01    1.42482e-01    1.42381e-01    1.42482e-01    1.42381e-01    2.90033e+00    9.79045e-01    7.25083e-01    5.37371e-01    7.25083e-01    2.44761e-01    1.34343e-01    1.34343e-01    2.44761e-01
    2.60000e+01    0.00000e+00    0.00000e+00    0.00000e+00    5.12684e+00    2.27850e+00    5.69650e-01    5.69698e-01    5.69603e-01    5.69698e-01    1.42441e-01    1.42402e-01    1.42441e-01    1.42402e-01    2.90033e+00    9.79045e-01    7.25083e-01    5.37371e-01    7.25083e-01    2.44761e-01    1.34343e-01    1.34343e-01    2.44761e-01
    2.70000e+01    0.00000e+00    0.00000e+00    0.00000e+00    5.12649e+00    2.27834e+00    5.69606e-01    5.69663e-01    5.69565e-01    5.69663e-01    1.42399e-01    1.42426e-01    1.42399e-01    1.42426e-01    2.90033e+00    9.79045e-01    7.25083e-01    5.37371e-01    7.25083e-01    2.44761e-01    1.34343e-01    1.34343e-01    2.44761e-01
    2.80000e+01    0.00000e+00    0.00000e+00    0.00000e+00    5.12618e+00    2.27819e+00    5.69568e-01    5.69632e-01    5.69530e-01    5.69632e-01    1.42359e-01    1.42451e-01    1.42359e-01    1.42451e-01    2.90033e+00    9.79045e-01    7.25083e-01    5.37371e-01    7.25083e-01    2.44761e-01    1.34343e-01    1.34343e-01    2.44761e-01
    2.90000e+01    0.00000e+00    0.00000e+00    0.00000e+00    5.12590e+00    2.27807e+00    5.69533e-01    5.69603e-01    5.69502e-01    5.69603e-01    1.42321e-01    1.42476e-01    1.42321e-01    1.42476e-01    2.90033e+00    9.79045e-01    7.25083e-01    5.37371e-01    7.25083e-01    2.44761e-01    1.34343e-01    1.34343e-01    2.44761e-01
    3.00000e+01    0.00000e+00    0.00000e+00    0.00000e+00    5.12566e+00    2.27795e+00    5.69503e-01    5.69578e-01    5.69474e-01    5.69578e-01    1.42289e-01    1.42497e-01    1.42289e-01    1.42497e-01    2.90033e+00    9.79045e-01    7.25083e-01    5.37371e-01    7.25083e-01    2.44761e-01    1.34343e-01    1.34343e-01    2.44761e-01
    3.10000e+01    0.00000e+00    0.00000e+00    0.00000e+00    5.12545e+00    2.27786e+00    5.69477e-01    5.69555e-01    5.69455e-01    5.69555e-01    1.42263e-01    1.42513e-01    1.42263e-01    1.42513e-01    2.90033e+00    9.79045e-01    7.25083e-01    5.37371e-01    7.25083e-01    2.44761e-01    1.34343e-01    1.34343e-01    2.44761e-01
    3.20000e+01    0.00000e+00    0.00000e+00    0.00000e+00    5.12527e+00    2.27778e+00    5.69455e-01    5.69536e-01    5.69431e-01    5.69536e-01    1.42247e-01    1.42523e-01    1.42247e-01    1.42523e-01    2.90033e+00    9.79045e-01    7.25083e-01    5.37371e-01    7.25083e-01    2.44761e-01    1.34343e-01    1.34343e-01    2.44761e-01
    3.30000e+01    0.00000e+00    0.00000e+00    0.00000e+00    5.12513e+00    2.27771e+00    5.69435e-01    5.69517e-01    5.69424e-01    5.69517e-01    1.42239e-01    1.42525e-01    1.42239e-01    1.42525e-01    2.90033e+00    9.79045e-01    7.25083e-01    5.37371e-01    7.25083e-01    2.44761e-01    1.34343e-01    1.34343e-01    2.44761e-01
    3.40000e+01    0.00000e+00    0.00000e+00    0.00000e+00    5.12499e+00    2.27765e+00    5.69421e-01    5.69503e-01    5.69397e-01    5.69503e-01    1.42242e-01    1.42518e-01    1.42242e-01    1.42518e-01    2.90033e+00    9.79045e-01    7.25083e-01    5.37371e-01    7.25083e-01    2.44761e-01    1.34343e-01    1.34343e-01    2.44761e-01
    3.50000e+01    0.00000e+00    0.00000e+00    0.00000e+00    5.12493e+00    2.27762e+00    5.69404e-01    5.69487e-01    5.69415e-01    5.69487e-01    1.42259e-01    1.42501e-01    1.42259e-01    1.42501e-01    2.90033e+00    9.79045e-01    7.25083e-01    5.37371e-01    7.25083e-01    2.44761e-01    1.34343e-01    1.34343e-01    2.44761e-01
    3.60000e+01    0.00000e+00    0.00000e+00    0.00000e+00    5.12477e+00    2.27755e+00    5.69404e-01    5.69487e-01    5.69350e-01    5.69487e-01    1.42271e-01    1.42476e-01    1.42271e-01    1.42476e-01    2.90033e+00    9.79045e-01    7.25083e-01    5.37371e-01    7.25083e-01    2.44761e-01    1.34343e-01    1.34343e-01    2.44761e-01
    3.70000e+01    0.00000e+00    0.00000e+00    0.00000e+00    5.12480e+00    2.27756e+00    5.69373e-01    5.69457e-01    5.69442e-01    5.69457e-01    1.42309e-01    1.42445e-01    1.42309e-01    1.42445e-01    2.90033e+00    9.79045e-01    7.25083e-01    5.37371e-01    7.25083e-01    2.44761e-01    1.34343e-01    1.34343e-01    2.44761e-01
    3.80000e+01    0.00000e+00    0.00000e+00    0.00000e+00    5.12470e+00    2.27752e+00    5.69401e-01    5.69486e-01    5.69296e-01    5.69486e-01    1.42349e-01    1.42408e-01    1.42349e-01    1.42408e-01    2.90033e+00    9.79045e-01    7.25083e-01    5.37371e-01    7.25083e-01    2.44761e-01    1.34343e-01    1.34343e-01    2.44761e-01
    3.90000e+01    0.00000e+00    0.00000e+00    0.00000e+00    5.12420e+00    2.27730e+00    5.69363e-01    5.69358e-01    5.69363e-01    5.69358e-01    1.42331e-01    1.42398e-01    1.42331e-01    1.42398e-01    2.90033e+00    9.79045e-01    7.25083e-01    5.37371e-01    7.25083e-01    2.44761e-01    1.34343e-01    1.34343e-01    2.44761e-01
    0.00000e+00    1.00000e+00    0.00000e+00    0.00000e+00    5.13958e+00    2.28438e+00    5.70986e-01    5.71175e-01    5.70986e-01    5.71064e-01    1.42718e-01    1.42774e-01    1.42718e-01    1.42774e-01    2.90033e+00    9.79045e-01    7.25083e-01    5.37371e-01    7.25083e-01    2.44761e-01    1.34343e-01    1.34343e-01    2.44761e-01
    1.00000e+00    1.00000e+00    8.96656e-05    7.05083e-05    5.13950e+00    2.28434e+00    5.71172e-01    5.71160e-01    5.70879e-01    5.70934e-01    1.42828e-01    1.42744e-01    1.42676e-01    1.42760e-01    2.90033e+00    9.79045e-01    7.25083e-01    5.37371e-01    7.25083e-01    2.44761e-01    1.34343e-01    1.34343e-01    2.44761e-01
    2.00000e+00    1.00000e+00    1.31375e-04    7.13781e-05    5.13928e+00    2.28425e+00    5.71274e-01    5.71113e-01    5.70806e-01    5.70880e-01    1.42827e-01    1.42721e-01    1.42656e-01    1.42758e-01    2.90033e+00    9.79045e-01    7.25083e-01    5.37371e-01    7.25083e-01    2.44761e-01    1.34343e-01    1.34343e-01    2.44761e-01
    3.00000e+00    1.00000e+00    1.47201e-04    8.61035e-05    5.13901e+00    2.28412e+00    5.71281e-01    5.71101e-01    5.70766e-01    5.70802e-01    1.42831e-01    1.42707e-01    1.42639e-01    1.42756e-01    2.90033e+00    9.79045e-01    7.25083e-01    5.37371e-01    7.25083e-01    2.44761e-01    1.34343e-01    1.34343e-01    2.44761e-01
    4.00000e+00    1.00000e+00    1.36043e-04    1.01703e-04    5.13868e+00    2.28397e+00    5.71264e-01    5.71055e-01    5.70781e-01    5.70706e-01    1.42841e-01    1.42694e-01    1.42646e-01    1.42716e-01    2.90033e+00    9.79045e-01    7.25083e-01    5.37371e-01    7.25083e-01    2.44761e-01    1.34343e-01    1.34343e-01    2.44761e-01
    5.00000e+00    1.00000e+00    9.45198e-05    1.09796e-04    5.13830e+00    2.28380e+00    5.71173e-01    5.71012e-01    5.70830e-01    5.70629e-01    1.42830e-01    1.42688e-01    1.42668e-01    1.42669e-01    2.90033e+00    9.79045e-01    7.25083e-01    5.37371e-01    7.25083e-01    2.44761e-01    1.34343e-01    1.34343e-01    2.44761e-01
    6.00000e+00    1.00000e+00    3.31498e-05    1.15384e-04    5.13787e+00    2.28361e+00    5.71037e-01    5.70962e-01    5.70900e-01    5.70558e-01    1.42817e-01    1.42682e-01    1.42706e-01    1.42604e-01    2.90033e+00    9.79045e-01    7.25083e-01    5.37371e-01    7.25083e-01    2.44761e-01    1.34343e-01    1.34343e-01    2.44761e-01
    7.00000e+00    1.00000e+00   -4.15506e-05    1.15913e-04    5.13740e+00    2.28339e+00    5.70866e-01    5.70903e-01    5.70983e-01    5.70496e-01    1.42796e-01    1.42679e-01    1.42750e-01    1.42537e-01    2.90033e+00    9.79045e-01    7.25083e-01    5.37371e-01    7.25083e-01    2.44761e-01    1.34343e-01    1.34343e-01    2.44761e-01
    8.00000e+00    1.00000e+00   -1.25596e-04    1.15411e-04    5.13690e+00    2.28316e+00    5.70674e-01    5.70843e-01    5.71076e-01    5.70436e-01    1.42773e-01    1.42675e-01    1.42801e-01    1.42460e-01    2.90033e+00    9.79045e-01    7.25083e-01    5.37371e-01    7.25083e-01    2.44761e-01    1.34343e-01    1.34343e-01    2.44761e-01
    9.00000e+00    1.00000e+00   -2.16228e-04    1.12025e-04    5.13636e+00    2.28292e+00    5.70463e-01    5.70776e-01    5.71174e-01    5.70380e-01    1.42744e-01    1.42672e-01    1.42854e-01    1.42383e-01    2.90033e+00    9.79045e-01    7.25083e-01    5.37371e-01    7.25083e-01    2.44761e-01    1.34343e-01    1.34343e-01    2.44761e-01
    1.00000e+01    1.00000e+00   -3.10719e-04    1.07968e-04    5.13580e+00    2.28266e+00    5.70240e-01    5.70708e-01    5.71273e-01    5.70326e-01    1.42715e-01    1.42669e-01    1.42911e-01    1.42302e-01    2.90033e+00    9.79045e-01    7.25083e-01    5.37371e-01    7.25083e-01    2.44761e-01    1.34343e-01    1.34343e-01    2.44761e-01
    1.10000e+01    1.00000e+00   -4.06802e-04    1.01925e-04    5.13522e+00    2.28239e+00    5.70010e-01    5.70637e-01    5.71370e-01    5.70274e-01    1.42683e-01    1.42667e-01    1.42967e-01    1.42222e-01    2.90033e+00    9.79045e-01    7.25083e-01    5.37371e-01    7.25083e-01    2.44761e-01    1.34343e-01    1.34343e-01    2.44761e-01
    1.20000e+01    1.00000e+00   -5.02596e-04    9.45649e-05    5.13462e+00    2.28211e+00    5.69777e-01    5.70563e-01    5.71464e-01    5.70226e-01    1.42649e-01    1.42663e-01    1.43022e-01    1.42141e-01    2.90033e+00    9.79045e-01    7.25083e-01    5.37371e-01    7.25083e-01    2.44761e-01    1.34343e-01    1.34343e-01    2.44761e-01
    1.30000e+01    1.00000e+00   -5.95914e-04    8.54677e-05    5.13401e+00    2.28183e+00    5.69544e-01    5.70487e-01    5.71549e-01    5.70182e-01    1.42614e-01    1.42659e-01    1.43075e-01    1.42065e-01    2.90033e+00    9.79045e-01    7.25083e-01    5.37371e-01    7.25083e-01    2.44761e-01    1.34343e-01    1.34343e-01    2.44761e-01
    1.40000e+01    1.00000e+00   -6.84161e-04    7.51311e-05    5.13339e+00    2.28155e+00    5.69317e-01    5.70411e-01    5.71622e-01    5.70141e-01    1.42580e-01    1.42654e-01    1.43125e-01    1.41993e-01    2.90033e+00    9.79045e-01    7.25083e-01    5.37371e-01    7.25083e-01    2.44761e-01    1.34343e-01    1.34343e-01    2.44761e-01
    1.50000e+01    1.00000e+00   -7.64624e-04    6.23746e-05    5.13276e+00    2.28126e+00    5.69098e-01    5.70333e-01    5.71679e-01    5.70108e-01    1.42544e-01    1.42647e-01    1.43169e-01    1.41927e-01    2.90033e+00    9.79045e-01    7.25083e-01    5.37371e-01    7.25083e-01    2.44761e-01    1.34343e-01    1.34343e-01    2.44761e-01
    1.60000e+01    1.00000e+00   -8.34296e-04    4.77864e-05    5.13214e+00    2.28097e+00    5.68895e-01    5.70254e-01    5.71713e-01    5.70081e-01    1.42510e-01    1.42638e-01    1.43206e-01    1.41871e-01    2.90033e+00    9.79045e-01    7.25083e-01    5.37371e-01    7.25083e-01    2.44761e-01    1.34343e-01    1.34343e-01    2.44761e-01
    1.70000e+01    1.00000e+00   -8.89801e-04    3.16238e-05    5.13151e+00    2.28068e+00    5.68714e-01    5.70176e-01    5.71721e-01    5.70059e-01    1.42477e-01    1.42628e-01    1.43234e-01    1.41825e-01    2.90033e+00    9.79045e-01    7.25083e-01    5.37371e-01    7.25083e-01    2.44761e-01    1.34343e-01    1.34343e-01    2.44761e-01
    1.80000e+01    1.00000e+00   -9.27871e-04    1.34091e-05    5.13090e+00    2.28039e+00    5.68559e-01    5.70098e-01    5.71696e-01    5.70047e-01    1.42447e-01    1.42613e-01    1.43250e-01    1.41793e-01    2.90033e+00    9.79045e-01    7.25083e-01    5.37371e-01    7.25083e-01    2.44761e-01    1.34343e-01    1.34343e-01    2.44761e-01
    1.90000e+01    1.00000e+00   -9.45481e-04   -6.80797e-06    5.13030e+00    2.28011e+00    5.68439e-01    5.70022e-01    5.71636e-01    5.70043e-01    1.42419e-01    1.42595e-01    1.43253e-01    1.41775e-01    2.90033e+00    9.79045e-01    7.25083e-01    5.37371e-01    7.25083e-01    2.44761e-01    1.34343e-01    1.34343e-01    2.44761e-01
    2.00000e+01    1.00000e+00   -9.39886e-04   -2.75102e-05    5.12971e+00    2.27984e+00    5.68357e-01    5.69948e-01    5.71535e-01    5.70042e-01    1.42396e-01    1.42574e-01    1.43241e-01    1.41775e-01    2.90033e+00    9.79045e-01    7.25083e-01    5.37371e-01    7.25083e-01    2.44761e-01    1.34343e-01    1.34343e-01    2.44761e-01
    2.10000e+01    1.00000e+00   -9.09272e-04   -4.88426e-05    5.12915e+00    2.27958e+00    5.68320e-01    5.69876e-01    5.71393e-01    5.70047e-01    1.42378e-01    1.42548e-01    1.43213e-01    1.41793e-01    2.90033e+00    9.79045e-01    7.25083e-01    5.37371e-01    7.25083e-01    2.44761e-01    1.34343e-01    1.34343e-01    2.44761e-01
    2.20000e+01    1.00000e+00   -8.52950e-04   -7.06369e-05    5.12862e+00    2.27934e+00    5.68329e-01    5.69808e-01    5.71210e-01    5.70057e-01    1.42364e-01    1.42518e-01    1.43167e-01    1.41828e-01    2.90033e+00    9.79045e-01    7.25083e-01    5.37371e-01    7.25083e-01    2.44761e-01    1.34343e-01    1.34343e-01    2.44761e-01
    2.30000e+01    1.00000e+00   -7.71356e-04   -9.09913e-05    5.12812e+00    2.27910e+00    5.68386e-01    5.69743e-01    5.70989e-01    5.70065e-01    1.42357e-01    1.42485e-01    1.43106e-01    1.41881e-01    2.90033e+00    9.79045e-01    7.25083e-01    5.37371e-01    7.25083e-01    2.44761e-01    1.34343e-01    1.34343e-01    2.44761e-01
    2.40000e+01    1.00000e+00   -6.66519e-04   -1.09128e-04    5.12765e+00    2.27889e+00    5.68490e-01    5.69683e-01    5.70734e-01    5.70070e-01    1.42356e-01    1.42450e-01    1.43029e-01    1.41950e-01    2.90033e+00    9.79045e-01    7.25083e-01    5.37371e-01    7.25083e-01    2.44761e-01    1.34343e-01    1.34343e-01    2.44761e-01
    2.50000e+01    1.00000e+00   -5.42150e-04   -1.25174e-04    5.12722e+00    2.27869e+00    5.68635e-01    5.69628e-01    5.70456e-01    5.70072e-01    1.42360e-01    1.42412e-01    1.42938e-01    1.42031e-01    2.90033e+00    9.79045e-01    7.25083e-01    5.37371e-01    7.25083e-01    2.44761e-01    1.34343e-01    1.34343e-01    2.44761e-01
    2.60000e+01    1.00000e+00   -4.03264e-04   -1.37571e-04    5.12683e+00    2.27851e+00    5.68815e-01    5.69577e-01    5.70162e-01    5.70066e-01    1.42368e-01    1.42375e-01    1.42837e-01    1.42123e-01    2.90033e+00    9.79045e-01    7.25083e-01    5.37371e-01    7.25083e-01    2.44761e-01    1.34343e-01    1.34343e-01    2.44761e-01
    2.70000e+01    1.00000e+00   -2.56214e-04   -1.45267e-04    5.12648e+00    2.27834e+00    5.69020e-01    5.69532e-01    5.69866e-01    5.70048e-01    1.42381e-01    1.42338e-01    1.42730e-01    1.42219e-01    2.90033e+00    9.79045e-01    7.25083e-01    5.37371e-01    7.25083e-01    2.44761e-01    1.34343e-01    1.34343e-01    2.44761e-01
    2.80000e+01    1.00000e+00   -1.08338e-04   -1.48893e-04    5.12617e+00    2.27820e+00    5.69239e-01    5.69492e-01    5.69580e-01    5.70020e-01    1.42397e-01    1.42304e-01    1.42622e-01    1.42315e-01    2.90033e+00    9.79045e-01    7.25083e-01    5.37371e-01    7.25083e-01    2.44761e-01    1.34343e-01    1.34343e-01    2.44761e-01
    2.90000e+01    1.00000e+00    3.25886e-05   -1.47851e-04    5.12590e+00    2.27807e+00    5.69458e-01    5.69457e-01    5.69319e-01    5.69980e-01    1.42413e-01    1.42274e-01    1.42516e-01    1.42406e-01    2.90033e+00    9.79045e-01    7.25083e-01    5.37371e-01    7.25083e-01    2.44761e-01    1.34343e-01    1.34343e-01    2.44761e-01
    3.00000e+01    1.00000e+00    1.58758e-04   -1.42048e-04    5.12566e+00    2.27796e+00    5.69663e-01    5.69427e-01    5.69095e-01    5.69927e-01    1.42429e-01    1.42251e-01    1.42420e-01    1.42487e-01    2.90033e+00    9.79045e-01    7.25083e-01    5.37371e-01    7.25083e-01    2.44761e-01    1.34343e-01    1.34343e-01    2.44761e-01
    3.10000e+01    1.00000e+00    2.62778e-04   -1.31919e-04    5.12546e+00    2.27787e+00    5.69841e-01    5.69402e-01    5.68920e-01    5.69864e-01    1.42441e-01    1.42234e-01    1.42336e-01    1.42554e-01    2.90033e+00    9.79045e-01    7.25083e-01    5.37371e-01    7.25083e-01    2.44761e-01    1.34343e-01    1.34343e-01    2.44761e-01
    3.20000e+01    1.00000e+00    3.38667e-04   -1.19341e-04    5.12529e+00    2.27779e+00    5.69979e-01    5.69380e-01    5.68801e-01    5.69794e-01    1.42451e-01    1.42224e-01    1.42271e-01    1.42602e-01    2.90033e+00    9.79045e-01    7.25083e-01    5.37371e-01    7.25083e-01    2.44761e-01    1.34343e-01    1.34343e-01    2.44761e-01
    3.30000e+01    1.00000e+00    3.82107e-04   -1.03382e-04    5.12515e+00    2.27773e+00    5.70069e-01    5.69365e-01    5.68745e-01    5.69720e-01    1.42455e-01    1.42223e-01    1.42225e-01    1.42627e-01    2.90033e+00    9.79045e-01    7.25083e-01    5.37371e-01    7.25083e-01    2.44761e-01    1.34343e-01    1.34343e-01    2.44761e-01
    3.40000e+01    1.00000e+00    3.88984e-04   -8.55203e-05    5.12504e+00    2.27767e+00    5.70103e-01    5.69347e-01    5.68758e-01    5.69637e-01    1.42453e-01    1.42233e-01    1.42203e-01    1.42631e-01    2.90033e+00    9.79045e-01    7.25083e-01    5.37371e-01    7.25083e-01    2.44761e-01    1.34343e-01    1.34343e-01    2.44761e-01
    3.50000e+01    1.00000e+00    3.59275e-04   -6.74989e-05    5.12495e+00    2.27763e+00    5.70073e-01    5.69346e-01    5.68834e-01    5.69565e-01    1.42443e-01    1.42245e-01    1.42205e-01    1.42609e-01    2.90033e+00    9.79045e-01    7.25083e-01    5.37371e-01    7.25083e-01    2.44761e-01    1.34343e-01    1.34343e-01    2.44761e-01
    3.60000e+01    1.00000e+00    2.91803e-04   -5.62446e-05    5.12487e+00    2.27760e+00    5.69987e-01    5.69314e-01    5.68980e-01    5.69500e-01    1.42427e-01    1.42271e-01    1.42234e-01    1.42567e-01    2.90033e+00    9.79045e-01    7.25083e-01    5.37371e-01    7.25083e-01    2.44761e-01    1.34343e-01    1.34343e-01    2.44761e-01
    3.70000e+01    1.00000e+00    2.05267e-04   -4.00156e-05    5.12480e+00    2.27756e+00    5.69831e-01    5.69340e-01    5.69114e-01    5.69458e-01    1.42408e-01    1.42297e-01    1.42284e-01    1.42508e-01    2.90033e+00    9.79045e-01    7.25083e-01    5.37371e-01    7.25083e-01    2.44761e-01    1.34343e-01    1.34343e-01    2.44761e-01
    3.80000e+01    1.00000e+00    1.12518e-04   -6.22315e-05    5.12474e+00    2.27754e+00    5.69670e-01    5.69301e-01    5.69295e-01    5.69490e-01    1.42379e-01    1.42281e-01    1.42343e-01    1.42447e-01    2.90033e+00    9.79045e-01    7.25083e-01    5.37371e-01    7.25083e-01    2.44761e-01    1.34343e-01    1.34343e-01    2.44761e-01
    3.90000e+01    1.00000e+00    0.00000e+00    0.00000e+00    5.12473e+00    2.27753e+00    5.69499e-01    5.69301e-01    5.69499e-01    5.69415e-01    1.42341e-01    1.42401e-01    1.42341e-01    1.42401e-01    2.90033e+00    9.79045e-01    7.25083e-01    5.37371e-01    7.25083e-01    2.44761e-01    1.34343e-01    1.34343e-01    2.44761e-01
    0.00000e+00    2.00000e+00    0.00000e+00    0.00000e+00    5.13931e+00    2.28426e+00    5.70987e-01    5.71040e-01    5.70987e-01    5.71070e-01    1.42704e-01    1.42777e-01    1.42704e-01    1.42777e-01    2.90033e+00    9.79045e-01    7.25083e-01    5.37371e-01    7.25083e-01    2.44761e-01    1.34343e-01    1.34343e-01    2.44761e-01
    1.00000e+00    2.00000e+00    6.50368e-05    1.12834e-04    5.13929e+00    2.28425e+00    5.71122e-01    5.71222e-01    5.70917e-01    5.70817e-01    1.42813e-01    1.42755e-01    1.42661e-01    1.42732e-01    2.90033e+00    9.79045e-01    7.25083e-01    5.37371e-01    7.25083e-01    2.44761e-01    1.34343e-01    1.34343e-01    2.44761e-01
    2.00000e+00    2.00000e+00    7.74025e-05    1.57799e-04    5.13911e+00    2.28417e+00    5.71198e-01    5.71219e-01    5.70924e-01    5.70663e-01    1.42842e-01    1.42752e-01    1.42652e-01    1.42687e-01    2.90033e+00    9.79045e-01    7.25083e-01    5.37371e-01    7.25083e-01    2.44761e-01    1.34343e-01    1.34343e-01    2.44761e-01
    3.00000e+00    2.00000e+00    3.63973e-05    2.06198e-04    5.13884e+00    2.28405e+00    5.71133e-01    5.71221e-01    5.71016e-01    5.70504e-01    1.42862e-01    1.42768e-01    1.42655e-01    1.42632e-01    2.90033e+00    9.79045e-01    7.25083e-01    5.37371e-01    7.25083e-01    2.44761e-01    1.34343e-01    1.34343e-01    2.44761e-01
    4.00000e+00    2.00000e+00   -5.29019e-05    2.61096e-04    5.13854e+00    2.28391e+00    5.70997e-01    5.71238e-01    5.71178e-01    5.70334e-01    1.42867e-01    1.42793e-01    1.42693e-01    1.42530e-01    2.90033e+00    9.79045e-01    7.25083e-01    5.37371e-01    7.25083e-01    2.44761e-01    1.34343e-01    1.34343e-01    2.44761e-01
    5.00000e+00    2.00000e+00   -1.85062e-04    2.96868e-04    5.13817e+00    2.28374e+00    5.70763e-01    5.71222e-01    5.71398e-01    5.70193e-01    1.42845e-01    1.42829e-01    1.42754e-01    1.42423e-01    2.90033e+00    9.79045e-01    7.25083e-01    5.37371e-01    7.25083e-01    2.44761e-01    1.34343e-01    1.34343e-01    2.44761e-01