TITLE="LBM output"
VARIABLES = "X", "Y", "U","V","density","f0","f1","f2","f3","f4","f5","f6","f7","f8","feq0","feq1","feq2","feq3","feq4","feq5","feq6","feq7","feq8",
ZONE T = "fluid", I=40, J=40, F=POINT
SOLUTIONTIME=454
    0.00000e+00    0.00000e+00    0.00000e+00    0.00000e+00    5.03144e+00    2.23651e+00    5.59042e-01    5.59037e-01    5.59042e-01    5.59037e-01    1.39604e-01    1.39782e-01    1.39604e-01    1.39782e-01    2.86790e+00    9.68099e-01    7.16976e-01    5.31363e-01    7.16976e-01    2.42025e-01    1.32841e-01    1.32841e-01    2.42025e-01
    1.00000e+00    0.00000e+00    0.00000e+00    0.00000e+00    5.03019e+00    2.23596e+00    5.59196e-01    5.58702e-01    5.58923e-01    5.58702e-01    1.39603e-01    1.39753e-01    1.39603e-01    1.39753e-01    2.86790e+00    9.68099e-01    7.16976e-01    5.31363e-01    7.16976e-01    2.42025e-01    1.32841e-01    1.32841e-01    2.42025e-01
    2.00000e+00    0.00000e+00    0.00000e+00    0.00000e+00    5.02986e+00    2.23581e+00    5.58828e-01    5.58763e-01    5.58987e-01    5.58763e-01    1.39586e-01    1.39768e-01    1.39586e-01    1.39768e-01    2.86790e+00    9.68099e-01    7.16976e-01    5.31363e-01    7.16976e-01    2.42025e-01    1.32841e-01    1.32841e-01    2.42025e-01
    3.00000e+00    0.00000e+00    0.00000e+00    0.00000e+00    5.02977e+00    2.23577e+00    5.59051e-01    5.58644e-01    5.58886e-01    5.58644e-01    1.39577e-01    1.39814e-01    1.39577e-01    1.39814e-01    2.86790e+00    9.68099e-01    7.16976e-01    5.31363e-01    7.16976e-01    2.42025e-01    1.32841e-01    1.32841e-01    2.42025e-01
    4.00000e+00    0.00000e+00    0.00000e+00    0.00000e+00    5.02927e+00    2.23554e+00    5.58856e-01    5.58659e-01    5.58884e-01    5.58659e-01    1.39579e-01    1.39756e-01    1.39579e-01    1.39756e-01    2.86790e+00    9.68099e-01    7.16976e-01    5.31363e-01    7.16976e-01    2.42025e-01    1.32841e-01    1.32841e-01    2.42025e-01
    5.00000e+00    0.00000e+00    0.00000e+00    0.00000e+00    5.02906e+00    2.23545e+00    5.58909e-01    5.58618e-01    5.58834e-01    5.58618e-01    1.39561e-01    1.39757e-01    1.39561e-01    1.39757e-01    2.86790e+00    9.68099e-01    7.16976e-01    5.31363e-01    7.16976e-01    2.42025e-01    1.32841e-01    1.32841e-01    2.42025e-01
    6.00000e+00    0.00000e+00    0.00000e+00    0.00000e+00    5.02877e+00    2.23531e+00    5.58824e-01    5.58598e-01    5.58821e-01    5.58598e-01    1.39566e-01    1.39743e-01    1.39566e-01    1.39743e-01    2.86790e+00    9.68099e-01    7.16976e-01    5.31363e-01    7.16976e-01    2.42025e-01    1.32841e-01    1.32841e-01    2.42025e-01
    7.00000e+00    0.00000e+00    0.00000e+00    0.00000e+00    5.02867e+00    2.23526e+00    5.58832e-01    5.58574e-01    5.58810e-01    5.58574e-01    1.39574e-01    1.39733e-01    1.39574e-01    1.39733e-01    2.86790e+00    9.68099e-01    7.16976e-01    5.31363e-01    7.16976e-01    2.42025e-01    1.32841e-01    1.32841e-01    2.42025e-01
    8.00000e+00    0.00000e+00    0.00000e+00    0.00000e+00    5.02871e+00    2.23527e+00    5.58803e-01    5.58583e-01    5.58831e-01    5.58583e-01    1.39590e-01    1.39727e-01    1.39590e-01    1.39727e-01    2.86790e+00    9.68099e-01    7.16976e-01    5.31363e-01    7.16976e-01    2.42025e-01    1.32841e-01    1.32841e-01    2.42025e-01
    9.00000e+00    0.00000e+00    0.00000e+00    0.00000e+00    5.02899e+00    2.23539e+00    5.58830e-01    5.58615e-01    5.58872e-01    5.58615e-01    1.39612e-01    1.39721e-01    1.39612e-01    1.39721e-01    2.86790e+00    9.68099e-01    7.16976e-01    5.31363e-01    7.16976e-01    2.42025e-01    1.32841e-01    1.32841e-01    2.42025e-01
    1.00000e+01    0.00000e+00    0.00000e+00    0.00000e+00    5.02952e+00    2.23562e+00    5.58860e-01    5.58679e-01    5.58949e-01    5.58679e-01    1.39647e-01    1.39722e-01    1.39647e-01    1.39722e-01    2.86790e+00    9.68099e-01    7.16976e-01    5.31363e-01    7.16976e-01    2.42025e-01    1.32841e-01    1.32841e-01    2.42025e-01
    1.10000e+01    0.00000e+00    0.00000e+00    0.00000e+00    5.03038e+00    2.23598e+00    5.58937e-01    5.58778e-01    5.59060e-01    5.58778e-01    1.39692e-01    1.39731e-01    1.39692e-01    1.39731e-01    2.86790e+00    9.68099e-01    7.16976e-01    5.31363e-01    7.16976e-01    2.42025e-01    1.32841e-01    1.32841e-01    2.42025e-01
    1.20000e+01    0.00000e+00    0.00000e+00    0.00000e+00    5.03158e+00    2.23650e+00    5.59039e-01    5.58921e-01    5.59212e-01    5.58921e-01    1.39747e-01    1.39747e-01    1.39747e-01    1.39747e-01    2.86790e+00    9.68099e-01    7.16976e-01    5.31363e-01    7.16976e-01    2.42025e-01    1.32841e-01    1.32841e-01    2.42025e-01
    1.30000e+01    0.00000e+00    0.00000e+00    0.00000e+00    5.03316e+00    2.23718e+00    5.59187e-01    5.59108e-01    5.59405e-01    5.59108e-01    1.39815e-01    1.39774e-01    1.39815e-01    1.39774e-01    2.86790e+00    9.68099e-01    7.16976e-01    5.31363e-01    7.16976e-01    2.42025e-01    1.32841e-01    1.32841e-01    2.42025e-01
    1.40000e+01    0.00000e+00    0.00000e+00    0.00000e+00    5.03513e+00    2.23802e+00    5.59373e-01    5.59342e-01    5.59642e-01    5.59342e-01    1.39895e-01    1.39809e-01    1.39895e-01    1.39809e-01    2.86790e+00    9.68099e-01    7.16976e-01    5.31363e-01    7.16976e-01    2.42025e-01    1.32841e-01    1.32841e-01    2.42025e-01
    1.50000e+01    0.00000e+00    0.00000e+00    0.00000e+00    5.03749e+00    2.23904e+00    5.59604e-01    5.59623e-01    5.59919e-01    5.59623e-01    1.39986e-01    1.39856e-01    1.39986e-01    1.39856e-01    2.86790e+00    9.68099e-01    7.16976e-01    5.31363e-01    7.16976e-01    2.42025e-01    1.32841e-01    1.32841e-01    2.42025e-01
    1.60000e+01    0.00000e+00    0.00000e+00    0.00000e+00    5.04022e+00    2.24021e+00    5.59875e-01    5.59947e-01    5.60235e-01    5.59947e-01    1.40086e-01    1.39914e-01    1.40086e-01    1.39914e-01    2.86790e+00    9.68099e-01    7.16976e-01    5.31363e-01    7.16976e-01    2.42025e-01    1.32841e-01    1.32841e-01    2.42025e-01
    1.70000e+01    0.00000e+00    0.00000e+00    0.00000e+00    5.04326e+00    2.24153e+00    5.60186e-01    5.60308e-01    5.60580e-01    5.60308e-01    1.40193e-01    1.39981e-01    1.40193e-01    1.39981e-01    2.86790e+00    9.68099e-01    7.16976e-01    5.31363e-01    7.16976e-01    2.42025e-01    1.32841e-01    1.32841e-01    2.42025e-01
    1.80000e+01    0.00000e+00    0.00000e+00    0.00000e+00    5.04652e+00    2.24294e+00    5.60527e-01    5.60697e-01    5.60944e-01    5.60697e-01    1.40303e-01    1.40057e-01    1.40303e-01    1.40057e-01    2.86790e+00    9.68099e-01    7.16976e-01    5.31363e-01    7.16976e-01    2.42025e-01    1.32841e-01    1.32841e-01    2.42025e-01
    1.90000e+01    0.00000e+00    0.00000e+00    0.00000e+00    5.04992e+00    2.24441e+00    5.60889e-01    5.61100e-01    5.61315e-01    5.61100e-01    1.40410e-01    1.40141e-01    1.40410e-01    1.40141e-01    2.86790e+00    9.68099e-01    7.16976e-01    5.31363e-01    7.16976e-01    2.42025e-01    1.32841e-01    1.32841e-01    2.42025e-01
    2.00000e+01    0.00000e+00    0.00000e+00    0.00000e+00    5.05331e+00    2.24588e+00    5.61260e-01    5.61504e-01    5.61679e-01    5.61504e-01    1.40512e-01    1.40231e-01    1.40512e-01    1.40231e-01    2.86790e+00    9.68099e-01    7.16976e-01    5.31363e-01    7.16976e-01    2.42025e-01    1.32841e-01    1.32841e-01    2.42025e-01
    2.10000e+01    0.00000e+00    0.00000e+00    0.00000e+00    5.05658e+00    2.24730e+00    5.61626e-01    5.61893e-01    5.62020e-01    5.61893e-01    1.40604e-01    1.40322e-01    1.40604e-01    1.40322e-01    2.86790e+00    9.68099e-01    7.16976e-01    5.31363e-01    7.16976e-01    2.42025e-01    1.32841e-01    1.32841e-01    2.42025e-01
    2.20000e+01    0.00000e+00    0.00000e+00    0.00000e+00    5.05959e+00    2.24860e+00    5.61972e-01    5.62252e-01    5.62326e-01    5.62252e-01    1.40681e-01    1.40414e-01    1.40681e-01    1.40414e-01    2.86790e+00    9.68099e-01    7.16976e-01    5.31363e-01    7.16976e-01    2.42025e-01    1.32841e-01    1.32841e-01    2.42025e-01
    2.30000e+01    0.00000e+00    0.00000e+00    0.00000e+00    5.06225e+00    2.24975e+00    5.62284e-01    5.62568e-01    5.62587e-01    5.62568e-01    1.40742e-01    1.40503e-01    1.40742e-01    1.40503e-01    2.86790e+00    9.68099e-01    7.16976e-01    5.31363e-01    7.16976e-01    2.42025e-01    1.32841e-01    1.32841e-01    2.42025e-01
    2.40000e+01    0.00000e+00    0.00000e+00    0.00000e+00    5.06446e+00    2.25070e+00    5.62551e-01    5.62834e-01    5.62796e-01    5.62834e-01    1.40787e-01    1.40585e-01    1.40787e-01    1.40585e-01    2.86790e+00    9.68099e-01    7.16976e-01    5.31363e-01    7.16976e-01    2.42025e-01    1.32841e-01    1.32841e-01    2.42025e-01
    2.50000e+01    0.00000e+00    0.00000e+00    0.00000e+00    5.06619e+00    2.25144e+00    5.62767e-01    5.63043e-01    5.62950e-01    5.63043e-01    1.40815e-01    1.40659e-01    1.40815e-01    1.40659e-01    2.86790e+00    9.68099e-01    7.16976e-01    5.31363e-01    7.16976e-01    2.42025e-01    1.32841e-01    1.32841e-01    2.42025e-01
    2.60000e+01    0.00000e+00    0.00000e+00    0.00000e+00    5.06745e+00    2.25197e+00    5.62929e-01    5.63196e-01    5.63053e-01    5.63196e-01    1.40827e-01    1.40723e-01    1.40827e-01    1.40723e-01    2.86790e+00    9.68099e-01    7.16976e-01    5.31363e-01    7.16976e-01    2.42025e-01    1.32841e-01    1.32841e-01    2.42025e-01
    2.70000e+01    0.00000e+00    0.00000e+00    0.00000e+00    5.06826e+00    2.25231e+00    5.63039e-01    5.63297e-01    5.63112e-01    5.63297e-01    1.40829e-01    1.40776e-01    1.40829e-01    1.40776e-01    2.86790e+00    9.68099e-01    7.16976e-01    5.31363e-01    7.16976e-01    2.42025e-01    1.32841e-01    1.32841e-01    2.42025e-01
    2.80000e+01    0.00000e+00    0.00000e+00    0.00000e+00    5.06869e+00    2.25248e+00    5.63103e-01    5.63352e-01    5.63131e-01    5.63352e-01    1.40821e-01    1.40818e-01    1.40821e-01    1.40818e-01    2.86790e+00    9.68099e-01    7.16976e-01    5.31363e-01    7.16976e-01    2.42025e-01    1.32841e-01    1.32841e-01    2.42025e-01
    2.90000e+01    0.00000e+00    0.00000e+00    0.00000e+00    5.06882e+00    2.25251e+00    5.63128e-01    5.63370e-01    5.63128e-01    5.63370e-01    1.40806e-01    1.40848e-01    1.40806e-01    1.40848e-01    2.86790e+00    9.68099e-01    7.16976e-01    5.31363e-01    7.16976e-01    2.42025e-01    1.32841e-01    1.32841e-01    2.42025e-01
    3.00000e+01    0.00000e+00    0.00000e+00    0.00000e+00    5.06872e+00    2.25246e+00    5.63126e-01    5.63362e-01    5.63099e-01    5.63362e-01    1.40787e-01    1.40871e-01    1.40787e-01    1.40871e-01    2.86790e+00    9.68099e-01    7.16976e-01    5.31363e-01    7.16976e-01    2.42025e-01    1.32841e-01    1.32841e-01    2.42025e-01
    3.10000e+01    0.00000e+00    0.00000e+00    0.00000e+00    5.06849e+00    2.25235e+00    5.63104e-01    5.63336e-01    5.63072e-01    5.63336e-01    1.40765e-01    1.40884e-01    1.40765e-01    1.40884e-01    2.86790e+00    9.68099e-01    7.16976e-01    5.31363e-01    7.16976e-01    2.42025e-01    1.32841e-01    1.32841e-01    2.42025e-01
    3.20000e+01    0.00000e+00    0.00000e+00    0.00000e+00    5.06817e+00    2.25220e+00    5.63073e-01    5.63299e-01    5.63022e-01    5.63299e-01    1.40746e-01    1.40892e-01    1.40746e-01    1.40892e-01    2.86790e+00    9.68099e-01    7.16976e-01    5.31363e-01    7.16976e-01    2.42025e-01    1.32841e-01    1.32841e-01    2.42025e-01
    3.30000e+01    0.00000e+00    0.00000e+00    0.00000e+00    5.06785e+00    2.25206e+00    5.63034e-01    5.63252e-01    5.63008e-01    5.63252e-01    1.40727e-01    1.40895e-01    1.40727e-01    1.40895e-01    2.86790e+00    9.68099e-01    7.16976e-01    5.31363e-01    7.16976e-01    2.42025e-01    1.32841e-01    1.32841e-01    2.42025e-01
    3.40000e+01    0.00000e+00    0.00000e+00    0.00000e+00    5.06747e+00    2.25190e+00    5.63002e-01    5.63214e-01    5.62927e-01    5.63214e-01    1.40707e-01    1.40899e-01    1.40707e-01    1.40899e-01    2.86790e+00    9.68099e-01    7.16976e-01    5.31363e-01    7.16976e-01    2.42025e-01    1.32841e-01    1.32841e-01    2.42025e-01
    3.50000e+01    0.00000e+00    0.00000e+00    0.00000e+00    5.06732e+00    2.25184e+00    5.62954e-01    5.63175e-01    5.63002e-01    5.63175e-01    1.40708e-01    1.40881e-01    1.40708e-01    1.40881e-01    2.86790e+00    9.68099e-01    7.16976e-01    5.31363e-01    7.16976e-01    2.42025e-01    1.32841e-01    1.32841e-01    2.42025e-01
    3.60000e+01    0.00000e+00    0.00000e+00    0.00000e+00    5.06688e+00    2.25165e+00    5.62967e-01    5.63201e-01    5.62797e-01    5.63201e-01    1.40646e-01    1.40887e-01    1.40646e-01    1.40887e-01    2.86790e+00    9.68099e-01    7.16976e-01    5.31363e-01    7.16976e-01    2.42025e-01    1.32841e-01    1.32841e-01    2.42025e-01
    3.70000e+01    0.00000e+00    0.00000e+00    0.00000e+00    5.06693e+00    2.25168e+00    5.62868e-01    5.63081e-01    5.63069e-01    5.63081e-01    1.40696e-01    1.40878e-01    1.40696e-01    1.40878e-01    2.86790e+00    9.68099e-01    7.16976e-01    5.31363e-01    7.16976e-01    2.42025e-01    1.32841e-01    1.32841e-01    2.42025e-01
    3.80000e+01    0.00000e+00    0.00000e+00    0.00000e+00    5.06679e+00    2.25162e+00    5.62965e-01    5.63168e-01    5.62708e-01    5.63168e-01    1.40719e-01    1.40862e-01    1.40719e-01    1.40862e-01    2.86790e+00    9.68099e-01    7.16976e-01    5.31363e-01    7.16976e-01    2.42025e-01    1.32841e-01    1.32841e-01    2.42025e-01
    3.90000e+01    0.00000e+00    0.00000e+00    0.00000e+00    5.06565e+00    2.25110e+00    5.62856e-01    5.62861e-01    5.62856e-01    5.62861e-01    1.40694e-01    1.40863e-01    1.40694e-01    1.40863e-01    2.86790e+00    9.68099e-01    7.16976e-01    5.31363e-01    7.16976e-01    2.42025e-01    1.32841e-01    1.32841e-01    2.42025e-01
    0.00000e+00    1.00000e+00    0.00000e+00    0.00000e+00    5.03023e+00    2.23598e+00    5.58689e-01    5.59200e-01    5.58689e-01    5.58939e-01    1.39627e-01    1.39743e-01    1.39627e-01    1.39743e-01    2.86790e+00    9.68099e-01    7.16976e-01    5.31363e-01    7.16976e-01    2.42025e-01    1.32841e-01    1.32841e-01    2.42025e-01
    1.00000e+00    1.00000e+00    2.39322e-04    2.30887e-04    5.03024e+00    2.23598e+00    5.59232e-01    5.59217e-01    5.58474e-01    5.58484e-01    1.39922e-01    1.39718e-01    1.39485e-01    1.39726e-01    2.86790e+00    9.68099e-01    7.16976e-01    5.31363e-01    7.16976e-01    2.42025e-01    1.32841e-01    1.32841e-01    2.42025e-01
    2.00000e+00    1.00000e+00    2.94354e-04    2.28748e-04    5.03001e+00    2.23588e+00    5.59513e-01    5.59102e-01    5.58495e-01    5.58357e-01    1.39859e-01    1.39678e-01    1.39425e-01    1.39707e-01    2.86790e+00    9.68099e-01    7.16976e-01    5.31363e-01    7.16976e-01    2.42025e-01    1.32841e-01    1.32841e-01    2.42025e-01
    3.00000e+00    1.00000e+00    2.90779e-04    2.62947e-04    5.02969e+00    2.23573e+00    5.59401e-01    5.59181e-01    5.58413e-01    5.58292e-01    1.39853e-01    1.39701e-01    1.39399e-01    1.39721e-01    2.86790e+00    9.68099e-01    7.16976e-01    5.31363e-01    7.16976e-01    2.42025e-01    1.32841e-01    1.32841e-01    2.42025e-01
    4.00000e+00    1.00000e+00    3.04945e-04    2.45855e-04    5.02937e+00    2.23559e+00    5.59413e-01    5.59068e-01    5.58381e-01    5.58254e-01    1.39856e-01    1.39690e-01    1.39394e-01    1.39729e-01    2.86790e+00    9.68099e-01    7.16976e-01    5.31363e-01    7.16976e-01    2.42025e-01    1.32841e-01    1.32841e-01    2.42025e-01
    5.00000e+00    1.00000e+00    3.08300e-04    2.44355e-04    5.02911e+00    2.23547e+00    5.59381e-01    5.59061e-01    5.58338e-01    5.58239e-01    1.39829e-01    1.39685e-01    1.39372e-01    1.39735e-01    2.86790e+00    9.68099e-01    7.16976e-01    5.31363e-01    7.16976e-01    2.42025e-01    1.32841e-01    1.32841e-01    2.42025e-01
    6.00000e+00    1.00000e+00    3.03979e-04    2.51983e-04    5.02888e+00    2.23536e+00    5.59369e-01    5.59019e-01    5.58341e-01    5.58174e-01    1.39835e-01    1.39685e-01    1.39374e-01    1.39724e-01    2.86790e+00    9.68099e-01    7.16976e-01    5.31363e-01    7.16976e-01    2.42025e-01    1.32841e-01    1.32841e-01    2.42025e-01
    7.00000e+00    1.00000e+00    2.85626e-04    2.53128e-04    5.02878e+00    2.23531e+00    5.59331e-01    5.59017e-01    5.58362e-01    5.58167e-01    1.39818e-01    1.39688e-01    1.39373e-01    1.39710e-01    2.86790e+00    9.68099e-01    7.16976e-01    5.31363e-01    7.16976e-01    2.42025e-01    1.32841e-01    1.32841e-01    2.42025e-01
    8.00000e+00    1.00000e+00    2.63725e-04    2.49880e-04    5.02884e+00    2.23533e+00    5.59301e-01    5.59017e-01    5.58407e-01    5.58179e-01    1.39810e-01    1.39702e-01    1.39384e-01    1.39709e-01    2.86790e+00    9.68099e-01    7.16976e-01    5.31363e-01    7.16976e-01    2.42025e-01    1.32841e-01    1.32841e-01    2.42025e-01
    9.00000e+00    1.00000e+00    2.39548e-04    2.45126e-04    5.02913e+00    2.23545e+00    5.59292e-01    5.59046e-01    5.58481e-01    5.58222e-01    1.39803e-01    1.39722e-01    1.39402e-01    1.39714e-01    2.86790e+00    9.68099e-01    7.16976e-01    5.31363e-01    7.16976e-01    2.42025e-01    1.32841e-01    1.32841e-01    2.42025e-01
    1.00000e+01    1.00000e+00    2.11959e-04    2.38472e-04    5.02969e+00    2.23569e+00    5.59308e-01    5.59097e-01    5.58590e-01    5.58296e-01    1.39804e-01    1.39750e-01    1.39431e-01    1.39725e-01    2.86790e+00    9.68099e-01    7.16976e-01    5.31363e-01    7.16976e-01    2.42025e-01    1.32841e-01    1.32841e-01    2.42025e-01
    1.10000e+01    1.00000e+00    1.81061e-04    2.28496e-04    5.03055e+00    2.23605e+00    5.59349e-01    5.59184e-01    5.58736e-01    5.58416e-01    1.39808e-01    1.39788e-01    1.39468e-01    1.39746e-01    2.86790e+00    9.68099e-01    7.16976e-01    5.31363e-01    7.16976e-01    2.42025e-01    1.32841e-01    1.32841e-01    2.42025e-01
    1.20000e+01    1.00000e+00    1.47334e-04    2.14520e-04    5.03176e+00    2.23657e+00    5.59424e-01    5.59301e-01    5.58926e-01    5.58580e-01    1.39821e-01    1.39836e-01    1.39520e-01    1.39778e-01    2.86790e+00    9.68099e-01    7.16976e-01    5.31363e-01    7.16976e-01    2.42025e-01    1.32841e-01    1.32841e-01    2.42025e-01
    1.30000e+01    1.00000e+00    1.10259e-04    1.97249e-04    5.03334e+00    2.23725e+00    5.59534e-01    5.59457e-01    5.59162e-01    5.58793e-01    1.39842e-01    1.39895e-01    1.39585e-01    1.39822e-01    2.86790e+00    9.68099e-01    7.16976e-01    5.31363e-01    7.16976e-01    2.42025e-01    1.32841e-01    1.32841e-01    2.42025e-01
    1.40000e+01    1.00000e+00    6.98354e-05    1.76290e-04    5.03530e+00    2.23809e+00    5.59679e-01    5.59651e-01    5.59445e-01    5.59056e-01    1.39872e-01    1.39964e-01    1.39667e-01    1.39876e-01    2.86790e+00    9.68099e-01    7.16976e-01    5.31363e-01    7.16976e-01    2.42025e-01    1.32841e-01    1.32841e-01    2.42025e-01
    1.50000e+01    1.00000e+00    2.64657e-05    1.50742e-04    5.03765e+00    2.23911e+00    5.59861e-01    5.59883e-01    5.59774e-01    5.59374e-01    1.39911e-01    1.40042e-01    1.39762e-01    1.39940e-01    2.86790e+00    9.68099e-01    7.16976e-01    5.31363e-01    7.16976e-01    2.42025e-01    1.32841e-01    1.32841e-01    2.42025e-01
    1.60000e+01    1.00000e+00   -1.87373e-05    1.21636e-04    5.04035e+00    2.24027e+00    5.60076e-01    5.60150e-01    5.60143e-01    5.59738e-01    1.39959e-01    1.40129e-01    1.39872e-01    1.40015e-01    2.86790e+00    9.68099e-01    7.16976e-01    5.31363e-01    7.16976e-01    2.42025e-01    1.32841e-01    1.32841e-01    2.42025e-01
    1.70000e+01    1.00000e+00   -6.40491e-05    8.97654e-05    5.04335e+00    2.24157e+00    5.60323e-01    5.60448e-01    5.60544e-01    5.60142e-01    1.40017e-01    1.40221e-01    1.39995e-01    1.40097e-01    2.86790e+00    9.68099e-01    7.16976e-01    5.31363e-01    7.16976e-01    2.42025e-01    1.32841e-01    1.32841e-01    2.42025e-01
    1.80000e+01    1.00000e+00   -1.07125e-04    5.51763e-05    5.04658e+00    2.24296e+00    5.60596e-01    5.60769e-01    5.60963e-01    5.60579e-01    1.40083e-01    1.40316e-01    1.40126e-01    1.40185e-01    2.86790e+00    9.68099e-01    7.16976e-01    5.31363e-01    7.16976e-01    2.42025e-01    1.32841e-01    1.32841e-01    2.42025e-01
    1.90000e+01    1.00000e+00   -1.45179e-04    1.86426e-05    5.04992e+00    2.24441e+00    5.60887e-01    5.61103e-01    5.61384e-01    5.61035e-01    1.40156e-01    1.40409e-01    1.40261e-01    1.40277e-01    2.86790e+00    9.68099e-01    7.16976e-01    5.31363e-01    7.16976e-01    2.42025e-01    1.32841e-01    1.32841e-01    2.42025e-01
    2.00000e+01    1.00000e+00   -1.75184e-04   -1.78685e-05    5.05326e+00    2.24586e+00    5.61190e-01    5.61437e-01    5.61788e-01    5.61492e-01    1.40234e-01    1.40497e-01    1.40396e-01    1.40371e-01    2.86790e+00    9.68099e-01    7.16976e-01    5.31363e-01    7.16976e-01    2.42025e-01    1.32841e-01    1.32841e-01    2.42025e-01
    2.10000e+01    1.00000e+00   -1.94544e-04   -5.42519e-05    5.05648e+00    2.24725e+00    5.61496e-01    5.61759e-01    5.62158e-01    5.61937e-01    1.40315e-01    1.40574e-01    1.40524e-01    1.40462e-01    2.86790e+00    9.68099e-01    7.16976e-01    5.31363e-01    7.16976e-01    2.42025e-01    1.32841e-01    1.32841e-01    2.42025e-01
    2.20000e+01    1.00000e+00   -2.01528e-04   -9.00221e-05    5.05945e+00    2.24854e+00    5.61794e-01    5.62056e-01    5.62479e-01    5.62355e-01    1.40395e-01    1.40639e-01    1.40640e-01    1.40550e-01    2.86790e+00    9.68099e-01    7.16976e-01    5.31363e-01    7.16976e-01    2.42025e-01    1.32841e-01    1.32841e-01    2.42025e-01
    2.30000e+01    1.00000e+00   -1.95389e-04   -1.23767e-04    5.06207e+00    2.24967e+00    5.62076e-01    5.62316e-01    5.62739e-01    5.62730e-01    1.40472e-01    1.40689e-01    1.40741e-01    1.40632e-01    2.86790e+00    9.68099e-01    7.16976e-01    5.31363e-01    7.16976e-01    2.42025e-01    1.32841e-01    1.32841e-01    2.42025e-01
    2.40000e+01    1.00000e+00   -1.76669e-04   -1.54864e-04    5.06426e+00    2.25062e+00    5.62334e-01    5.62532e-01    5.62931e-01    5.63052e-01    1.40543e-01    1.40723e-01    1.40824e-01    1.40706e-01    2.86790e+00    9.68099e-01    7.16976e-01    5.31363e-01    7.16976e-01    2.42025e-01    1.32841e-01    1.32841e-01    2.42025e-01
    2.50000e+01    1.00000e+00   -1.47083e-04   -1.83905e-04    5.06600e+00    2.25136e+00    5.62562e-01    5.62698e-01    5.63056e-01    5.63318e-01    1.40605e-01    1.40740e-01    1.40886e-01    1.40771e-01    2.86790e+00    9.68099e-01    7.16976e-01    5.31363e-01    7.16976e-01    2.42025e-01    1.32841e-01    1.32841e-01    2.42025e-01
    2.60000e+01    1.00000e+00   -1.09065e-04   -2.09422e-04    5.06727e+00    2.25190e+00    5.62755e-01    5.62816e-01    5.63118e-01    5.63524e-01    1.40657e-01    1.40745e-01    1.40928e-01    1.40827e-01    2.86790e+00    9.68099e-01    7.16976e-01    5.31363e-01    7.16976e-01    2.42025e-01    1.32841e-01    1.32841e-01    2.42025e-01
    2.70000e+01    1.00000e+00   -6.51481e-05   -2.31006e-04    5.06810e+00    2.25224e+00    5.62912e-01    5.62890e-01    5.63124e-01    5.63671e-01    1.40698e-01    1.40739e-01    1.40952e-01    1.40874e-01    2.86790e+00    9.68099e-01    7.16976e-01    5.31363e-01    7.16976e-01    2.42025e-01    1.32841e-01    1.32841e-01    2.42025e-01
    2.80000e+01    1.00000e+00   -1.77342e-05   -2.48717e-04    5.06856e+00    2.25242e+00    5.63036e-01    5.62924e-01    5.63086e-01    5.63767e-01    1.40728e-01    1.40726e-01    1.40957e-01    1.40914e-01    2.86790e+00    9.68099e-01    7.16976e-01    5.31363e-01    7.16976e-01    2.42025e-01    1.32841e-01    1.32841e-01    2.42025e-01
    2.90000e+01    1.00000e+00    3.14959e-05   -2.62268e-04    5.06872e+00    2.25247e+00    5.63131e-01    5.62930e-01    5.63013e-01    5.63820e-01    1.40749e-01    1.40706e-01    1.40948e-01    1.40946e-01    2.86790e+00    9.68099e-01    7.16976e-01    5.31363e-01    7.16976e-01    2.42025e-01    1.32841e-01    1.32841e-01    2.42025e-01
    3.00000e+01    1.00000e+00    8.07970e-05   -2.70263e-04    5.06865e+00    2.25243e+00    5.63205e-01    5.62915e-01    5.62919e-01    5.63832e-01    1.40761e-01    1.40686e-01    1.40925e-01    1.40975e-01    2.86790e+00    9.68099e-01    7.16976e-01    5.31363e-01    7.16976e-01    2.42025e-01    1.32841e-01    1.32841e-01    2.42025e-01
    3.10000e+01    1.00000e+00    1.28680e-04   -2.74222e-04    5.06843e+00    2.25233e+00    5.63261e-01    5.62888e-01    5.62813e-01    5.63819e-01    1.40768e-01    1.40665e-01    1.40895e-01    1.40997e-01    2.86790e+00    9.68099e-01    7.16976e-01    5.31363e-01    7.16976e-01    2.42025e-01    1.32841e-01    1.32841e-01    2.42025e-01
    3.20000e+01    1.00000e+00    1.75623e-04   -2.74062e-04    5.06813e+00    2.25219e+00    5.63306e-01    5.62854e-01    5.62699e-01    5.63784e-01    1.40772e-01    1.40647e-01    1.40860e-01    1.41018e-01    2.86790e+00    9.68099e-01    7.16976e-01    5.31363e-01    7.16976e-01    2.42025e-01    1.32841e-01    1.32841e-01    2.42025e-01
    3.30000e+01    1.00000e+00    2.19255e-04   -2.68662e-04    5.06779e+00    2.25204e+00    5.63347e-01    5.62828e-01    5.62596e-01    5.63740e-01    1.40771e-01    1.40625e-01    1.40815e-01    1.41030e-01    2.86790e+00    9.68099e-01    7.16976e-01    5.31363e-01    7.16976e-01    2.42025e-01    1.32841e-01    1.32841e-01    2.42025e-01
    3.40000e+01    1.00000e+00    2.48048e-04   -2.52280e-04    5.06746e+00    2.25190e+00    5.63381e-01    5.62783e-01    5.62534e-01    5.63643e-01    1.40770e-01    1.40632e-01    1.40775e-01    1.41046e-01    2.86790e+00    9.68099e-01    7.16976e-01    5.31363e-01    7.16976e-01    2.42025e-01    1.32841e-01    1.32841e-01    2.42025e-01
    3.50000e+01    1.00000e+00    2.67268e-04   -2.45077e-04    5.06720e+00    2.25179e+00    5.63382e-01    5.62789e-01    5.62472e-01    5.63606e-01    1.40769e-01    1.40603e-01    1.40759e-01    1.41037e-01    2.86790e+00    9.68099e-01    7.16976e-01    5.31363e-01    7.16976e-01    2.42025e-01    1.32841e-01    1.32841e-01    2.42025e-01
    3.60000e+01    1.00000e+00    2.67312e-04   -2.52935e-04    5.06695e+00    2.25168e+00    5.63397e-01    5.62678e-01    5.62482e-01    5.63543e-01    1.40762e-01    1.40613e-01    1.40751e-01    1.41042e-01    2.86790e+00    9.68099e-01    7.16976e-01    5.31363e-01    7.16976e-01    2.42025e-01    1.32841e-01    1.32841e-01    2.42025e-01
    3.70000e+01    1.00000e+00    2.80293e-04   -2.06896e-04    5.06673e+00    2.25159e+00    5.63341e-01    5.62789e-01    5.62364e-01    5.63468e-01    1.40791e-01    1.40616e-01    1.40754e-01    1.41022e-01    2.86790e+00    9.68099e-01    7.16976e-01    5.31363e-01    7.16976e-01    2.42025e-01    1.32841e-01    1.32841e-01    2.42025e-01
    3.80000e+01    1.00000e+00    2.30946e-04   -2.04771e-04    5.06665e+00    2.25155e+00    5.63396e-01    5.62689e-01    5.62662e-01    5.63336e-01    1.40755e-01    1.40554e-01    1.40733e-01    1.40968e-01    2.86790e+00    9.68099e-01    7.16976e-01    5.31363e-01    7.16976e-01    2.42025e-01    1.32841e-01    1.32841e-01    2.42025e-01
    3.90000e+01    1.00000e+00    0.00000e+00    0.00000e+00    5.06675e+00    2.25160e+00    5.63195e-01    5.62703e-01    5.63195e-01    5.62949e-01    1.40733e-01    1.40821e-01    1.40733e-01    1.40821e-01    2.86790e+00    9.68099e-01    7.16976e-01    5.31363e-01    7.16976e-01    2.42025e-01    1.32841e-01    1.32841e-01    2.42025e-01
    0.00000e+00    2.00000e+00    0.00000e+00    0.00000e+00    5.03016e+00    2.23595e+00    5.58788e-01    5.58833e-01    5.58788e-01    5.59049e-01    1.39609e-01    1.39770e-01    1.39609e-01    1.39770e-01    2.86790e+00    9.68099e-01    7.16976e-01    5.31363e-01    7.16976e-01    2.42025e-01    1.32841e-01    1.32841e-01    2.42025e-01
    1.00000e+00    2.00000e+00    2.09278e-04    3.14094e-04    5.03027e+00    2.23599e+00    5.59142e-01    5.59523e-01    5.58472e-01    5.58439e-01    1.39845e-01    1.39751e-01    1.39406e-01    1.39694e-01    2.86790e+00    9.68099e-01    7.16976e-01    5.31363e-01    7.16976e-01    2.42025e-01    1.32841e-01    1.32841e-01    2.42025e-01
    2.00000e+00    2.00000e+00    3.37590e-04    4.43878e-04    5.03007e+00    2.23590e+00    5.59499e-01    5.59563e-01    5.58350e-01    5.58053e-01    1.39965e-01    1.39747e-01    1.39329e-01    1.39660e-01    2.86790e+00    9.68099e-01    7.16976e-01    5.31363e-01    7.16976e-01    2.42025e-01    1.32841e-01    1.32841e-01    2.42025e-01
    3.00000e+00    2.00000e+00    3.80566e-04    4.79409e-04    5.02979e+00    2.23578e+00    5.59552e-01    5.59539e-01    5.58282e-01    5.57931e-01    1.40041e-01    1.39717e-01    1.39317e-01    1.39637e-01    2.86790e+00    9.68099e-01    7.16976e-01    5.31363e-01    7.16976e-01    2.42025e-01    1.32841e-01    1.32841e-01    2.42025e-01
    4.00000e+00    2.00000e+00    3.99792e-04    4.90523e-04    5.02956e+00    2.23567e+00    5.59582e-01    5.59514e-01    5.58236e-01    5.57873e-01    1.40051e-01    1.39703e-01    1.39306e-01    1.39623e-01    2.86790e+00    9.68099e-01    7.16976e-01    5.31363e-01    7.16976e-01    2.42025e-01    1.32841e-01    1.32841e-01    2.42025e-01
    5.00000e+00    2.00000e+00    3.91255e-04    4.91375e-04    5.02927e+00    2.23554e+00    5.59570e-01    5.59463e-01    5.58248e-01    5.57811e-01    1.40031e-01    1.39699e-01    1.39299e-01    1.39611e-01    2.86790e+00    9.68099e-01    7.16976e-01    5.31363e-01    7.16976e-01    2.42025e-01    1.32841e-01    1.32841e-01    2.42025e-01