TITLE="LBM output"
VARIABLES = "X", "Y", "U","V","density","f0","f1","f2","f3","f4","f5","f6","f7","f8","feq0","feq1","feq2","feq3","feq4","feq5","feq6","feq7","feq8",
ZONE T = "fluid", I=40, J=40, F=POINT
SOLUTIONTIME=1623
    0.00000e+00    0.00000e+00    0.00000e+00    0.00000e+00    5.20322e+00    2.31252e+00    5.78135e-01    5.78134e-01    5.78135e-01    5.78134e-01    1.44547e-01    1.44533e-01    1.44547e-01    1.44533e-01    2.93061e+00    9.89267e-01    7.32653e-01    5.42981e-01    7.32653e-01    2.47317e-01    1.35745e-01    1.35745e-01    2.47317e-01
    1.00000e+00    0.00000e+00    0.00000e+00    0.00000e+00    5.20324e+00    2.31254e+00    5.78127e-01    5.78165e-01    5.78131e-01    5.78165e-01    1.44521e-01    1.44536e-01    1.44521e-01    1.44536e-01    2.93061e+00    9.89267e-01    7.32653e-01    5.42981e-01    7.32653e-01    2.47317e-01    1.35745e-01    1.35745e-01    2.47317e-01
    2.00000e+00    0.00000e+00    0.00000e+00    0.00000e+00    5.20310e+00    2.31247e+00    5.78142e-01    5.78134e-01    5.78104e-01    5.78134e-01    1.44518e-01    1.44537e-01    1.44518e-01    1.44537e-01    2.93061e+00    9.89267e-01    7.32653e-01    5.42981e-01    7.32653e-01    2.47317e-01    1.35745e-01    1.35745e-01    2.47317e-01
    3.00000e+00    0.00000e+00    0.00000e+00    0.00000e+00    5.20289e+00    2.31238e+00    5.78098e-01    5.78123e-01    5.78084e-01    5.78123e-01    1.44514e-01    1.44527e-01    1.44514e-01    1.44527e-01    2.93061e+00    9.89267e-01    7.32653e-01    5.42981e-01    7.32653e-01    2.47317e-01    1.35745e-01    1.35745e-01    2.47317e-01
    4.00000e+00    0.00000e+00    0.00000e+00    0.00000e+00    5.20264e+00    2.31227e+00    5.78095e-01    5.78077e-01    5.78047e-01    5.78077e-01    1.44529e-01    1.44508e-01    1.44529e-01    1.44508e-01    2.93061e+00    9.89267e-01    7.32653e-01    5.42981e-01    7.32653e-01    2.47317e-01    1.35745e-01    1.35745e-01    2.47317e-01
    5.00000e+00    0.00000e+00    0.00000e+00    0.00000e+00    5.20232e+00    2.31212e+00    5.78044e-01    5.78043e-01    5.78012e-01    5.78043e-01    1.44549e-01    1.44476e-01    1.44549e-01    1.44476e-01    2.93061e+00    9.89267e-01    7.32653e-01    5.42981e-01    7.32653e-01    2.47317e-01    1.35745e-01    1.35745e-01    2.47317e-01
    6.00000e+00    0.00000e+00    0.00000e+00    0.00000e+00    5.20196e+00    2.31197e+00    5.78021e-01    5.77999e-01    5.77967e-01    5.77999e-01    1.44575e-01    1.44430e-01    1.44575e-01    1.44430e-01    2.93061e+00    9.89267e-01    7.32653e-01    5.42981e-01    7.32653e-01    2.47317e-01    1.35745e-01    1.35745e-01    2.47317e-01
    7.00000e+00    0.00000e+00    0.00000e+00    0.00000e+00    5.20156e+00    2.31179e+00    5.77968e-01    5.77959e-01    5.77921e-01    5.77959e-01    1.44601e-01    1.44383e-01    1.44601e-01    1.44383e-01    2.93061e+00    9.89267e-01    7.32653e-01    5.42981e-01    7.32653e-01    2.47317e-01    1.35745e-01    1.35745e-01    2.47317e-01
    8.00000e+00    0.00000e+00    0.00000e+00    0.00000e+00    5.20112e+00    2.31159e+00    5.77930e-01    5.77909e-01    5.77868e-01    5.77909e-01    1.44631e-01    1.44327e-01    1.44631e-01    1.44327e-01    2.93061e+00    9.89267e-01    7.32653e-01    5.42981e-01    7.32653e-01    2.47317e-01    1.35745e-01    1.35745e-01    2.47317e-01
    9.00000e+00    0.00000e+00    0.00000e+00    0.00000e+00    5.20063e+00    2.31137e+00    5.77871e-01    5.77857e-01    5.77812e-01    5.77857e-01    1.44658e-01    1.44274e-01    1.44658e-01    1.44274e-01    2.93061e+00    9.89267e-01    7.32653e-01    5.42981e-01    7.32653e-01    2.47317e-01    1.35745e-01    1.35745e-01    2.47317e-01
    1.00000e+01    0.00000e+00    0.00000e+00    0.00000e+00    5.20011e+00    2.31114e+00    5.77820e-01    5.77798e-01    5.77750e-01    5.77798e-01    1.44687e-01    1.44217e-01    1.44687e-01    1.44217e-01    2.93061e+00    9.89267e-01    7.32653e-01    5.42981e-01    7.32653e-01    2.47317e-01    1.35745e-01    1.35745e-01    2.47317e-01
    1.10000e+01    0.00000e+00    0.00000e+00    0.00000e+00    5.19954e+00    2.31088e+00    5.77755e-01    5.77737e-01    5.77684e-01    5.77737e-01    1.44714e-01    1.44160e-01    1.44714e-01    1.44160e-01    2.93061e+00    9.89267e-01    7.32653e-01    5.42981e-01    7.32653e-01    2.47317e-01    1.35745e-01    1.35745e-01    2.47317e-01
    1.20000e+01    0.00000e+00    0.00000e+00    0.00000e+00    5.19895e+00    2.31061e+00    5.77693e-01    5.77671e-01    5.77615e-01    5.77671e-01    1.44740e-01    1.44101e-01    1.44740e-01    1.44101e-01    2.93061e+00    9.89267e-01    7.32653e-01    5.42981e-01    7.32653e-01    2.47317e-01    1.35745e-01    1.35745e-01    2.47317e-01
    1.30000e+01    0.00000e+00    0.00000e+00    0.00000e+00    5.19832e+00    2.31033e+00    5.77622e-01    5.77603e-01    5.77543e-01    5.77603e-01    1.44763e-01    1.44045e-01    1.44763e-01    1.44045e-01    2.93061e+00    9.89267e-01    7.32653e-01    5.42981e-01    7.32653e-01    2.47317e-01    1.35745e-01    1.35745e-01    2.47317e-01
    1.40000e+01    0.00000e+00    0.00000e+00    0.00000e+00    5.19766e+00    2.31004e+00    5.77551e-01    5.77531e-01    5.77467e-01    5.77531e-01    1.44783e-01    1.43988e-01    1.44783e-01    1.43988e-01    2.93061e+00    9.89267e-01    7.32653e-01    5.42981e-01    7.32653e-01    2.47317e-01    1.35745e-01    1.35745e-01    2.47317e-01
    1.50000e+01    0.00000e+00    0.00000e+00    0.00000e+00    5.19698e+00    2.30973e+00    5.77475e-01    5.77457e-01    5.77389e-01    5.77457e-01    1.44798e-01    1.43936e-01    1.44798e-01    1.43936e-01    2.93061e+00    9.89267e-01    7.32653e-01    5.42981e-01    7.32653e-01    2.47317e-01    1.35745e-01    1.35745e-01    2.47317e-01
    1.60000e+01    0.00000e+00    0.00000e+00    0.00000e+00    5.19628e+00    2.30941e+00    5.77398e-01    5.77381e-01    5.77310e-01    5.77381e-01    1.44807e-01    1.43889e-01    1.44807e-01    1.43889e-01    2.93061e+00    9.89267e-01    7.32653e-01    5.42981e-01    7.32653e-01    2.47317e-01    1.35745e-01    1.35745e-01    2.47317e-01
    1.70000e+01    0.00000e+00    0.00000e+00    0.00000e+00    5.19556e+00    2.30909e+00    5.77318e-01    5.77304e-01    5.77229e-01    5.77304e-01    1.44809e-01    1.43847e-01    1.44809e-01    1.43847e-01    2.93061e+00    9.89267e-01    7.32653e-01    5.42981e-01    7.32653e-01    2.47317e-01    1.35745e-01    1.35745e-01    2.47317e-01
    1.80000e+01    0.00000e+00    0.00000e+00    0.00000e+00    5.19483e+00    2.30877e+00    5.77238e-01    5.77225e-01    5.77146e-01    5.77225e-01    1.44802e-01    1.43813e-01    1.44802e-01    1.43813e-01    2.93061e+00    9.89267e-01    7.32653e-01    5.42981e-01    7.32653e-01    2.47317e-01    1.35745e-01    1.35745e-01    2.47317e-01
    1.90000e+01    0.00000e+00    0.00000e+00    0.00000e+00    5.19410e+00    2.30844e+00    5.77156e-01    5.77146e-01    5.77064e-01    5.77146e-01    1.44783e-01    1.43789e-01    1.44783e-01    1.43789e-01    2.93061e+00    9.89267e-01    7.32653e-01    5.42981e-01    7.32653e-01    2.47317e-01    1.35745e-01    1.35745e-01    2.47317e-01
    2.00000e+01    0.00000e+00    0.00000e+00    0.00000e+00    5.19335e+00    2.30811e+00    5.77073e-01    5.77066e-01    5.76981e-01    5.77066e-01    1.44754e-01    1.43775e-01    1.44754e-01    1.43775e-01    2.93061e+00    9.89267e-01    7.32653e-01    5.42981e-01    7.32653e-01    2.47317e-01    1.35745e-01    1.35745e-01    2.47317e-01
    2.10000e+01    0.00000e+00    0.00000e+00    0.00000e+00    5.19261e+00    2.30778e+00    5.76991e-01    5.76986e-01    5.76897e-01    5.76986e-01    1.44714e-01    1.43772e-01    1.44714e-01    1.43772e-01    2.93061e+00    9.89267e-01    7.32653e-01    5.42981e-01    7.32653e-01    2.47317e-01    1.35745e-01    1.35745e-01    2.47317e-01
    2.20000e+01    0.00000e+00    0.00000e+00    0.00000e+00    5.19185e+00    2.30744e+00    5.76907e-01    5.76904e-01    5.76814e-01    5.76904e-01    1.44661e-01    1.43780e-01    1.44661e-01    1.43780e-01    2.93061e+00    9.89267e-01    7.32653e-01    5.42981e-01    7.32653e-01    2.47317e-01    1.35745e-01    1.35745e-01    2.47317e-01
    2.30000e+01    0.00000e+00    0.00000e+00    0.00000e+00    5.19110e+00    2.30711e+00    5.76824e-01    5.76823e-01    5.76730e-01    5.76823e-01    1.44596e-01    1.43800e-01    1.44596e-01    1.43800e-01    2.93061e+00    9.89267e-01    7.32653e-01    5.42981e-01    7.32653e-01    2.47317e-01    1.35745e-01    1.35745e-01    2.47317e-01
    2.40000e+01    0.00000e+00    0.00000e+00    0.00000e+00    5.19035e+00    2.30678e+00    5.76741e-01    5.76739e-01    5.76647e-01    5.76739e-01    1.44523e-01    1.43829e-01    1.44523e-01    1.43829e-01    2.93061e+00    9.89267e-01    7.32653e-01    5.42981e-01    7.32653e-01    2.47317e-01    1.35745e-01    1.35745e-01    2.47317e-01
    2.50000e+01    0.00000e+00    0.00000e+00    0.00000e+00    5.18960e+00    2.30644e+00    5.76658e-01    5.76656e-01    5.76564e-01    5.76656e-01    1.44442e-01    1.43866e-01    1.44442e-01    1.43866e-01    2.93061e+00    9.89267e-01    7.32653e-01    5.42981e-01    7.32653e-01    2.47317e-01    1.35745e-01    1.35745e-01    2.47317e-01
    2.60000e+01    0.00000e+00    0.00000e+00    0.00000e+00    5.18885e+00    2.30611e+00    5.76575e-01    5.76572e-01    5.76482e-01    5.76572e-01    1.44357e-01    1.43908e-01    1.44357e-01    1.43908e-01    2.93061e+00    9.89267e-01    7.32653e-01    5.42981e-01    7.32653e-01    2.47317e-01    1.35745e-01    1.35745e-01    2.47317e-01
    2.70000e+01    0.00000e+00    0.00000e+00    0.00000e+00    5.18810e+00    2.30579e+00    5.76493e-01    5.76486e-01    5.76401e-01    5.76486e-01    1.44271e-01    1.43953e-01    1.44271e-01    1.43953e-01    2.93061e+00    9.89267e-01    7.32653e-01    5.42981e-01    7.32653e-01    2.47317e-01    1.35745e-01    1.35745e-01    2.47317e-01
    2.80000e+01    0.00000e+00    0.00000e+00    0.00000e+00    5.18738e+00    2.30547e+00    5.76412e-01    5.76402e-01    5.76323e-01    5.76402e-01    1.44187e-01    1.43996e-01    1.44187e-01    1.43996e-01    2.93061e+00    9.89267e-01    7.32653e-01    5.42981e-01    7.32653e-01    2.47317e-01    1.35745e-01    1.35745e-01    2.47317e-01
    2.90000e+01    0.00000e+00    0.00000e+00    0.00000e+00    5.18667e+00    2.30516e+00    5.76333e-01    5.76319e-01    5.76247e-01    5.76319e-01    1.44110e-01    1.44035e-01    1.44110e-01    1.44035e-01    2.93061e+00    9.89267e-01    7.32653e-01    5.42981e-01    7.32653e-01    2.47317e-01    1.35745e-01    1.35745e-01    2.47317e-01
    3.00000e+01    0.00000e+00    0.00000e+00    0.00000e+00    5.18599e+00    2.30487e+00    5.76257e-01    5.76238e-01    5.76176e-01    5.76238e-01    1.44042e-01    1.44067e-01    1.44042e-01    1.44067e-01    2.93061e+00    9.89267e-01    7.32653e-01    5.42981e-01    7.32653e-01    2.47317e-01    1.35745e-01    1.35745e-01    2.47317e-01
    3.10000e+01    0.00000e+00    0.00000e+00    0.00000e+00    5.18535e+00    2.30459e+00    5.76185e-01    5.76160e-01    5.76108e-01    5.76160e-01    1.43987e-01    1.44089e-01    1.43987e-01    1.44089e-01    2.93061e+00    9.89267e-01    7.32653e-01    5.42981e-01    7.32653e-01    2.47317e-01    1.35745e-01    1.35745e-01    2.47317e-01
    3.20000e+01    0.00000e+00    0.00000e+00    0.00000e+00    5.18477e+00    2.30433e+00    5.76117e-01    5.76089e-01    5.76049e-01    5.76089e-01    1.43946e-01    1.44100e-01    1.43946e-01    1.44100e-01    2.93061e+00    9.89267e-01    7.32653e-01    5.42981e-01    7.32653e-01    2.47317e-01    1.35745e-01    1.35745e-01    2.47317e-01
    3.30000e+01    0.00000e+00    0.00000e+00    0.00000e+00    5.18424e+00    2.30410e+00    5.76056e-01    5.76025e-01    5.75992e-01    5.76025e-01    1.43920e-01    1.44099e-01    1.43920e-01    1.44099e-01    2.93061e+00    9.89267e-01    7.32653e-01    5.42981e-01    7.32653e-01    2.47317e-01    1.35745e-01    1.35745e-01    2.47317e-01
    3.40000e+01    0.00000e+00    0.00000e+00    0.00000e+00    5.18378e+00    2.30390e+00    5.76001e-01    5.75967e-01    5.75953e-01    5.75967e-01    1.43910e-01    1.44087e-01    1.43910e-01    1.44087e-01    2.93061e+00    9.89267e-01    7.32653e-01    5.42981e-01    7.32653e-01    2.47317e-01    1.35745e-01    1.35745e-01    2.47317e-01
    3.50000e+01    0.00000e+00    0.00000e+00    0.00000e+00    5.18339e+00    2.30373e+00    5.75957e-01    5.75919e-01    5.75907e-01    5.75919e-01    1.43911e-01    1.44068e-01    1.43911e-01    1.44068e-01    2.93061e+00    9.89267e-01    7.32653e-01    5.42981e-01    7.32653e-01    2.47317e-01    1.35745e-01    1.35745e-01    2.47317e-01
    3.60000e+01    0.00000e+00    0.00000e+00    0.00000e+00    5.18312e+00    2.30361e+00    5.75915e-01    5.75876e-01    5.75898e-01    5.75876e-01    1.43934e-01    1.44037e-01    1.43934e-01    1.44037e-01    2.93061e+00    9.89267e-01    7.32653e-01    5.42981e-01    7.32653e-01    2.47317e-01    1.35745e-01    1.35745e-01    2.47317e-01
    3.70000e+01    0.00000e+00    0.00000e+00    0.00000e+00    5.18291e+00    2.30352e+00    5.75896e-01    5.75865e-01    5.75860e-01    5.75865e-01    1.43944e-01    1.44005e-01    1.43944e-01    1.44005e-01    2.93061e+00    9.89267e-01    7.32653e-01    5.42981e-01    7.32653e-01    2.47317e-01    1.35745e-01    1.35745e-01    2.47317e-01
    3.80000e+01    0.00000e+00    0.00000e+00    0.00000e+00    5.18281e+00    2.30348e+00    5.75868e-01    5.75847e-01    5.75878e-01    5.75847e-01    1.43968e-01    1.43976e-01    1.43968e-01    1.43976e-01    2.93061e+00    9.89267e-01    7.32653e-01    5.42981e-01    7.32653e-01    2.47317e-01    1.35745e-01    1.35745e-01    2.47317e-01
    3.90000e+01    0.00000e+00    0.00000e+00    0.00000e+00    5.18284e+00    2.30350e+00    5.75872e-01    5.75870e-01    5.75872e-01    5.75870e-01    1.43969e-01    1.43959e-01    1.43969e-01    1.43959e-01    2.93061e+00    9.89267e-01    7.32653e-01    5.42981e-01    7.32653e-01    2.47317e-01    1.35745e-01    1.35745e-01    2.47317e-01
    0.00000e+00    1.00000e+00    0.00000e+00    0.00000e+00    5.20325e+00    2.31254e+00    5.78144e-01    5.78128e-01    5.78144e-01    5.78136e-01    1.44547e-01    1.44532e-01    1.44547e-01    1.44532e-01    2.93061e+00    9.89267e-01    7.32653e-01    5.42981e-01    7.32653e-01    2.47317e-01    1.35745e-01    1.35745e-01    2.47317e-01
    1.00000e+00    1.00000e+00   -1.07324e-05   -1.83029e-05    5.20320e+00    2.31252e+00    5.78125e-01    5.78106e-01    5.78163e-01    5.78165e-01    1.44519e-01    1.44525e-01    1.44546e-01    1.44534e-01    2.93061e+00    9.89267e-01    7.32653e-01    5.42981e-01    7.32653e-01    2.47317e-01    1.35745e-01    1.35745e-01    2.47317e-01
    2.00000e+00    1.00000e+00   -3.26538e-05    2.93619e-06    5.20308e+00    2.31247e+00    5.78090e-01    5.78104e-01    5.78201e-01    5.78087e-01    1.44542e-01    1.44523e-01    1.44572e-01    1.44494e-01    2.93061e+00    9.89267e-01    7.32653e-01    5.42981e-01    7.32653e-01    2.47317e-01    1.35745e-01    1.35745e-01    2.47317e-01
    3.00000e+00    1.00000e+00   -8.66936e-05    1.82428e-05    5.20290e+00    2.31238e+00    5.78024e-01    5.78070e-01    5.78321e-01    5.77996e-01    1.44536e-01    1.44525e-01    1.44603e-01    1.44438e-01    2.93061e+00    9.89267e-01    7.32653e-01    5.42981e-01    7.32653e-01    2.47317e-01    1.35745e-01    1.35745e-01    2.47317e-01
    4.00000e+00    1.00000e+00   -1.85475e-04    4.51271e-05    5.20265e+00    2.31227e+00    5.77867e-01    5.78057e-01    5.78500e-01    5.77884e-01    1.44528e-01    1.44535e-01    1.44663e-01    1.44338e-01    2.93061e+00    9.89267e-01    7.32653e-01    5.42981e-01    7.32653e-01    2.47317e-01    1.35745e-01    1.35745e-01    2.47317e-01
    5.00000e+00    1.00000e+00   -3.19424e-04    5.92148e-05    5.20234e+00    2.31214e+00    5.77630e-01    5.78019e-01    5.78728e-01    5.77794e-01    1.44504e-01    1.44554e-01    1.44745e-01    1.44231e-01    2.93061e+00    9.89267e-01    7.32653e-01    5.42981e-01    7.32653e-01    2.47317e-01    1.35745e-01    1.35745e-01    2.47317e-01
    6.00000e+00    1.00000e+00   -4.77130e-04    6.82627e-05    5.20199e+00    2.31198e+00    5.77336e-01    5.77983e-01    5.78977e-01    5.77724e-01    1.44472e-01    1.44572e-01    1.44844e-01    1.44104e-01    2.93061e+00    9.89267e-01    7.32653e-01    5.42981e-01    7.32653e-01    2.47317e-01    1.35745e-01    1.35745e-01    2.47317e-01
    7.00000e+00    1.00000e+00   -6.47866e-04    7.16588e-05    5.20159e+00    2.31180e+00    5.77005e-01    5.77934e-01    5.79238e-01    5.77660e-01    1.44433e-01    1.44594e-01    1.44952e-01    1.43977e-01    2.93061e+00    9.89267e-01    7.32653e-01    5.42981e-01    7.32653e-01    2.47317e-01    1.35745e-01    1.35745e-01    2.47317e-01
    8.00000e+00    1.00000e+00   -8.27205e-04    7.47091e-05    5.20115e+00    2.31160e+00    5.76653e-01    5.77886e-01    5.79506e-01    5.77600e-01    1.44392e-01    1.44612e-01    1.45066e-01    1.43836e-01    2.93061e+00    9.89267e-01    7.32653e-01    5.42981e-01    7.32653e-01    2.47317e-01    1.35745e-01    1.35745e-01    2.47317e-01
    9.00000e+00    1.00000e+00   -1.01135e-03    7.39297e-05    5.20067e+00    2.31138e+00    5.76282e-01    5.77829e-01    5.79774e-01    5.77545e-01    1.44346e-01    1.44632e-01    1.45180e-01    1.43697e-01    2.93061e+00    9.89267e-01    7.32653e-01    5.42981e-01    7.32653e-01    2.47317e-01    1.35745e-01    1.35745e-01    2.47317e-01
    1.00000e+01    1.00000e+00   -1.19636e-03    7.26915e-05    5.20014e+00    2.31115e+00    5.75904e-01    5.77770e-01    5.80035e-01    5.77489e-01    1.44299e-01    1.44649e-01    1.45296e-01    1.43555e-01    2.93061e+00    9.89267e-01    7.32653e-01    5.42981e-01    7.32653e-01    2.47317e-01    1.35745e-01    1.35745e-01    2.47317e-01
    1.10000e+01    1.00000e+00   -1.37896e-03    6.88246e-05    5.19958e+00    2.31089e+00    5.75521e-01    5.77705e-01    5.80285e-01    5.77437e-01    1.44250e-01    1.44665e-01    1.45408e-01    1.43417e-01    2.93061e+00    9.89267e-01    7.32653e-01    5.42981e-01    7.32653e-01    2.47317e-01    1.35745e-01    1.35745e-01    2.47317e-01
    1.20000e+01    1.00000e+00   -1.55614e-03    6.35867e-05    5.19898e+00    2.31062e+00    5.75141e-01    5.77637e-01    5.80518e-01    5.77388e-01    1.44199e-01    1.44679e-01    1.45516e-01    1.43281e-01    2.93061e+00    9.89267e-01    7.32653e-01    5.42981e-01    7.32653e-01    2.47317e-01    1.35745e-01    1.35745e-01    2.47317e-01
    1.30000e+01    1.00000e+00   -1.72413e-03    5.57149e-05    5.19835e+00    2.31033e+00    5.74769e-01    5.77564e-01    5.80728e-01    5.77342e-01    1.44148e-01    1.44690e-01    1.45617e-01    1.43154e-01    2.93061e+00    9.89267e-01    7.32653e-01    5.42981e-01    7.32653e-01    2.47317e-01    1.35745e-01    1.35745e-01    2.47317e-01
    1.40000e+01    1.00000e+00   -1.87845e-03    4.61015e-05    5.19769e+00    2.31003e+00    5.74414e-01    5.77489e-01    5.80906e-01    5.77302e-01    1.44099e-01    1.44698e-01    1.45709e-01    1.43036e-01    2.93061e+00    9.89267e-01    7.32653e-01    5.42981e-01    7.32653e-01    2.47317e-01    1.35745e-01    1.35745e-01    2.47317e-01
    1.50000e+01    1.00000e+00   -2.01421e-03    3.31713e-05    5.19700e+00    2.30972e+00    5.74082e-01    5.77411e-01    5.81044e-01    5.77270e-01    1.44049e-01    1.44700e-01    1.45786e-01    1.42932e-01    2.93061e+00    9.89267e-01    7.32653e-01    5.42981e-01    7.32653e-01    2.47317e-01    1.35745e-01    1.35745e-01    2.47317e-01
    1.60000e+01    1.00000e+00   -2.12608e-03    1.76334e-05    5.19629e+00    2.30941e+00    5.73785e-01    5.77330e-01    5.81133e-01    5.77246e-01    1.44002e-01    1.44698e-01    1.45848e-01    1.42844e-01    2.93061e+00    9.89267e-01    7.32653e-01    5.42981e-01    7.32653e-01    2.47317e-01    1.35745e-01    1.35745e-01    2.47317e-01
    1.70000e+01    1.00000e+00   -2.20834e-03   -3.56018e-07    5.19557e+00    2.30908e+00    5.73530e-01    5.77248e-01    5.81163e-01    5.77230e-01    1.43960e-01    1.44689e-01    1.45891e-01    1.42778e-01    2.93061e+00    9.89267e-01    7.32653e-01    5.42981e-01    7.32653e-01    2.47317e-01    1.35745e-01    1.35745e-01    2.47317e-01
    1.80000e+01    1.00000e+00   -2.25560e-03   -2.08924e-05    5.19483e+00    2.30875e+00    5.73331e-01    5.77165e-01    5.81126e-01    5.77223e-01    1.43923e-01    1.44671e-01    1.45909e-01    1.42736e-01    2.93061e+00    9.89267e-01    7.32653e-01    5.42981e-01    7.32653e-01    2.47317e-01    1.35745e-01    1.35745e-01    2.47317e-01
    1.90000e+01    1.00000e+00   -2.26315e-03   -4.38595e-05    5.19409e+00    2.30842e+00    5.73194e-01    5.77080e-01    5.81014e-01    5.77223e-01    1.43891e-01    1.44646e-01    1.45901e-01    1.42721e-01    2.93061e+00    9.89267e-01    7.32653e-01    5.42981e-01    7.32653e-01    2.47317e-01    1.35745e-01    1.35745e-01    2.47317e-01
    2.00000e+01    1.00000e+00   -2.22725e-03   -6.72093e-05    5.19333e+00    2.30808e+00    5.73129e-01    5.76995e-01    5.80824e-01    5.77226e-01    1.43869e-01    1.44611e-01    1.45864e-01    1.42735e-01    2.93061e+00    9.89267e-01    7.32653e-01    5.42981e-01    7.32653e-01    2.47317e-01    1.35745e-01    1.35745e-01    2.47317e-01
    2.10000e+01    1.00000e+00   -2.14600e-03   -9.06657e-05    5.19257e+00    2.30774e+00    5.73141e-01    5.76911e-01    5.80553e-01    5.77229e-01    1.43855e-01    1.44568e-01    1.45796e-01    1.42779e-01    2.93061e+00    9.89267e-01    7.32653e-01    5.42981e-01    7.32653e-01    2.47317e-01    1.35745e-01    1.35745e-01    2.47317e-01
    2.20000e+01    1.00000e+00   -2.01973e-03   -1.13502e-04    5.19181e+00    2.30741e+00    5.73232e-01    5.76826e-01    5.80206e-01    5.77230e-01    1.43849e-01    1.44515e-01    1.45697e-01    1.42851e-01    2.93061e+00    9.89267e-01    7.32653e-01    5.42981e-01    7.32653e-01    2.47317e-01    1.35745e-01    1.35745e-01    2.47317e-01
    2.30000e+01    1.00000e+00   -1.85099e-03   -1.33239e-04    5.19105e+00    2.30707e+00    5.73399e-01    5.76742e-01    5.79788e-01    5.77221e-01    1.43853e-01    1.44455e-01    1.45570e-01    1.42951e-01    2.93061e+00    9.89267e-01    7.32653e-01    5.42981e-01    7.32653e-01    2.47317e-01    1.35745e-01    1.35745e-01    2.47317e-01
    2.40000e+01    1.00000e+00   -1.64517e-03   -1.48494e-04    5.19029e+00    2.30674e+00    5.73638e-01    5.76659e-01    5.79314e-01    5.77196e-01    1.43867e-01    1.44389e-01    1.45415e-01    1.43074e-01    2.93061e+00    9.89267e-01    7.32653e-01    5.42981e-01    7.32653e-01    2.47317e-01    1.35745e-01    1.35745e-01    2.47317e-01
    2.50000e+01    1.00000e+00   -1.41035e-03   -1.59170e-04    5.18953e+00    2.30641e+00    5.73937e-01    5.76576e-01    5.78799e-01    5.77156e-01    1.43888e-01    1.44319e-01    1.45239e-01    1.43214e-01    2.93061e+00    9.89267e-01    7.32653e-01    5.42981e-01    7.32653e-01    2.47317e-01    1.35745e-01    1.35745e-01    2.47317e-01
    2.60000e+01    1.00000e+00   -1.15659e-03   -1.63297e-04    5.18878e+00    2.30608e+00    5.74279e-01    5.76496e-01    5.78263e-01    5.77092e-01    1.43914e-01    1.44247e-01    1.45048e-01    1.43363e-01    2.93061e+00    9.89267e-01    7.32653e-01    5.42981e-01    7.32653e-01    2.47317e-01    1.35745e-01    1.35745e-01    2.47317e-01
    2.70000e+01    1.00000e+00   -8.95707e-04   -1.59982e-04    5.18804e+00    2.30576e+00    5.74648e-01    5.76417e-01    5.77728e-01    5.77004e-01    1.43945e-01    1.44177e-01    1.44850e-01    1.43516e-01    2.93061e+00    9.89267e-01    7.32653e-01    5.42981e-01    7.32653e-01    2.47317e-01    1.35745e-01    1.35745e-01    2.47317e-01
    2.80000e+01    1.00000e+00   -6.40378e-04   -1.49986e-04    5.18732e+00    2.30544e+00    5.75021e-01    5.76342e-01    5.77219e-01    5.76893e-01    1.43977e-01    1.44112e-01    1.44652e-01    1.43663e-01    2.93061e+00    9.89267e-01    7.32653e-01    5.42981e-01    7.32653e-01    2.47317e-01    1.35745e-01    1.35745e-01    2.47317e-01
    2.90000e+01    1.00000e+00   -4.03122e-04   -1.33628e-04    5.18662e+00    2.30514e+00    5.75378e-01    5.76269e-01    5.76755e-01    5.76760e-01    1.44007e-01    1.44053e-01    1.44465e-01    1.43797e-01    2.93061e+00    9.89267e-01    7.32653e-01    5.42981e-01    7.32653e-01    2.47317e-01    1.35745e-01    1.35745e-01    2.47317e-01
    3.00000e+01    1.00000e+00   -1.95147e-04   -1.11282e-04    5.18595e+00    2.30485e+00    5.75697e-01    5.76201e-01    5.76357e-01    5.76611e-01    1.44034e-01    1.44004e-01    1.44294e-01    1.43911e-01    2.93061e+00    9.89267e-01    7.32653e-01    5.42981e-01    7.32653e-01    2.47317e-01    1.35745e-01    1.35745e-01    2.47317e-01
    3.10000e+01    1.00000e+00   -2.58174e-05   -8.46700e-05    5.18533e+00    2.30457e+00    5.75963e-01    5.76137e-01    5.76038e-01    5.76450e-01    1.44055e-01    1.43966e-01    1.44148e-01    1.44000e-01    2.93061e+00    9.89267e-01    7.32653e-01    5.42981e-01    7.32653e-01    2.47317e-01    1.35745e-01    1.35745e-01    2.47317e-01
    3.20000e+01    1.00000e+00    9.81886e-05   -5.59880e-05    5.18476e+00    2.30432e+00    5.76160e-01    5.76079e-01    5.75808e-01    5.76286e-01    1.44068e-01    1.43940e-01    1.44031e-01    1.44060e-01    2.93061e+00    9.89267e-01    7.32653e-01    5.42981e-01    7.32653e-01    2.47317e-01    1.35745e-01    1.35745e-01    2.47317e-01
    3.30000e+01    1.00000e+00    1.73840e-04   -2.68259e-05    5.18424e+00    2.30410e+00    5.76282e-01    5.76027e-01    5.75670e-01    5.76127e-01    1.44073e-01    1.43927e-01    1.43948e-01    1.44091e-01    2.93061e+00    9.89267e-01    7.32653e-01    5.42981e-01    7.32653e-01    2.47317e-01    1.35745e-01    1.35745e-01    2.47317e-01
    3.40000e+01    1.00000e+00    2.03309e-04   -3.19105e-07    5.18380e+00    2.30391e+00    5.76326e-01    5.75985e-01    5.75614e-01    5.75987e-01    1.44069e-01    1.43922e-01    1.43898e-01    1.44093e-01    2.93061e+00    9.89267e-01    7.32653e-01    5.42981e-01    7.32653e-01    2.47317e-01    1.35745e-01    1.35745e-01    2.47317e-01
    3.50000e+01    1.00000e+00    1.89467e-04    2.44764e-05    5.18343e+00    2.30375e+00    5.76302e-01    5.75946e-01    5.75641e-01    5.75859e-01    1.44056e-01    1.43932e-01    1.43875e-01    1.44073e-01    2.93061e+00    9.89267e-01    7.32653e-01    5.42981e-01    7.32653e-01    2.47317e-01    1.35745e-01    1.35745e-01    2.47317e-01
    3.60000e+01    1.00000e+00    1.41934e-04    4.30724e-05    5.18316e+00    2.30363e+00    5.76212e-01    5.75928e-01    5.75717e-01    5.75772e-01    1.44036e-01    1.43946e-01    1.43883e-01    1.44032e-01    2.93061e+00    9.89267e-01    7.32653e-01    5.42981e-01    7.32653e-01    2.47317e-01    1.35745e-01    1.35745e-01    2.47317e-01
    3.70000e+01    1.00000e+00    7.29295e-05    4.53276e-05    5.18296e+00    2.30355e+00    5.76089e-01    5.75894e-01    5.75836e-01    5.75732e-01    1.44007e-01    1.43963e-01    1.43908e-01    1.43990e-01    2.93061e+00    9.89267e-01    7.32653e-01    5.42981e-01    7.32653e-01    2.47317e-01    1.35745e-01    1.35745e-01    2.47317e-01
    3.80000e+01    1.00000e+00    1.50675e-05    3.51642e-05    5.18286e+00    2.30350e+00    5.75941e-01    5.75891e-01    5.75880e-01    5.75766e-01    1.43989e-01    1.43979e-01    1.43952e-01    1.43958e-01    2.93061e+00    9.89267e-01    7.32653e-01    5.42981e-01    7.32653e-01    2.47317e-01    1.35745e-01    1.35745e-01    2.47317e-01
    3.90000e+01    1.00000e+00    0.00000e+00    0.00000e+00    5.18281e+00    2.30348e+00    5.75864e-01    5.75879e-01    5.75864e-01    5.75872e-01    1.43967e-01    1.43960e-01    1.43967e-01    1.43960e-01    2.93061e+00    9.89267e-01    7.32653e-01    5.42981e-01    7.32653e-01    2.47317e-01    1.35745e-01    1.35745e-01    2.47317e-01
    0.00000e+00    2.00000e+00    0.00000e+00    0.00000e+00    5.20323e+00    2.31254e+00    5.78141e-01    5.78144e-01    5.78141e-01    5.78132e-01    1.44538e-01    1.44533e-01    1.44538e-01    1.44533e-01    2.93061e+00    9.89267e-01    7.32653e-01    5.42981e-01    7.32653e-01    2.47317e-01    1.35745e-01    1.35745e-01    2.47317e-01
    1.00000e+00    2.00000e+00   -4.36641e-05    1.65845e-05    5.20318e+00    2.31251e+00    5.78126e-01    5.78086e-01    5.78288e-01    5.78023e-01    1.44522e-01    1.44563e-01    1.44543e-01    1.44519e-01    2.93061e+00    9.89267e-01    7.32653e-01    5.42981e-01    7.32653e-01    2.47317e-01    1.35745e-01    1.35745e-01    2.47317e-01
    2.00000e+00    2.00000e+00   -1.56505e-04    7.88157e-05    5.20306e+00    2.31246e+00    5.77982e-01    5.78129e-01    5.78526e-01    5.77846e-01    1.44517e-01    1.44607e-01    1.44588e-01    1.44408e-01    2.93061e+00    9.89267e-01    7.32653e-01    5.42981e-01    7.32653e-01    2.47317e-01    1.35745e-01    1.35745e-01    2.47317e-01
    3.00000e+00    2.00000e+00   -3.29941e-04    1.48073e-04    5.20287e+00    2.31237e+00    5.77715e-01    5.78167e-01    5.78869e-01    5.77643e-01    1.44490e-01    1.44686e-01    1.44648e-01    1.44282e-01    2.93061e+00    9.89267e-01    7.32653e-01    5.42981e-01    7.32653e-01    2.47317e-01    1.35745e-01    1.35745e-01    2.47317e-01
    4.00000e+00    2.00000e+00   -5.65219e-04    2.22571e-04    5.20263e+00    2.31226e+00    5.77344e-01    5.78210e-01    5.79307e-01    5.77428e-01    1.44454e-01    1.44772e-01    1.44755e-01    1.44096e-01    2.93061e+00    9.89267e-01    7.32653e-01    5.42981e-01    7.32653e-01    2.47317e-01    1.35745e-01    1.35745e-01    2.47317e-01
    5.00000e+00    2.00000e+00   -8.51691e-04    2.75501e-04    5.20234e+00    2.31213e+00    5.76852e-01    5.78224e-01    5.79814e-01    5.77258e-01    1.44391e-01    1.44872e-01    1.44891e-01    1.43904e-01    2.93061e+00    9.89267e-01    7.32653e-01    5.42981e-01    7.32653e-01    2.47317e-01    1.35745e-01    1.35745e-01    2.47317e-01