TITLE="LBM output"
VARIABLES = "X", "Y", "U","V","density","f0","f1","f2","f3","f4","f5","f6","f7","f8","feq0","feq1","feq2","feq3","feq4","feq5","feq6","feq7","feq8",
ZONE T = "fluid", I=40, J=40, F=POINT
SOLUTIONTIME=1273
    0.00000e+00    0.00000e+00    0.00000e+00    0.00000e+00    5.13401e+00    2.28180e+00    5.70448e-01    5.70447e-01    5.70448e-01    5.70447e-01    1.42598e-01    1.42613e-01    1.42598e-01    1.42613e-01    2.91688e+00    9.84633e-01    7.29221e-01    5.40438e-01    7.29221e-01    2.46158e-01    1.35109e-01    1.35109e-01    2.46158e-01
    1.00000e+00    0.00000e+00    0.00000e+00    0.00000e+00    5.13401e+00    2.28179e+00    5.70456e-01    5.70429e-01    5.70450e-01    5.70429e-01    1.42615e-01    1.42613e-01    1.42615e-01    1.42613e-01    2.91688e+00    9.84633e-01    7.29221e-01    5.40438e-01    7.29221e-01    2.46158e-01    1.35109e-01    1.35109e-01    2.46158e-01
    2.00000e+00    0.00000e+00    0.00000e+00    0.00000e+00    5.13416e+00    2.28186e+00    5.70435e-01    5.70456e-01    5.70480e-01    5.70456e-01    1.42634e-01    1.42603e-01    1.42634e-01    1.42603e-01    2.91688e+00    9.84633e-01    7.29221e-01    5.40438e-01    7.29221e-01    2.46158e-01    1.35109e-01    1.35109e-01    2.46158e-01
    3.00000e+00    0.00000e+00    0.00000e+00    0.00000e+00    5.13434e+00    2.28194e+00    5.70492e-01    5.70446e-01    5.70492e-01    5.70446e-01    1.42671e-01    1.42591e-01    1.42671e-01    1.42591e-01    2.91688e+00    9.84633e-01    7.29221e-01    5.40438e-01    7.29221e-01    2.46158e-01    1.35109e-01    1.35109e-01    2.46158e-01
    4.00000e+00    0.00000e+00    0.00000e+00    0.00000e+00    5.13460e+00    2.28205e+00    5.70477e-01    5.70492e-01    5.70539e-01    5.70492e-01    1.42720e-01    1.42551e-01    1.42720e-01    1.42551e-01    2.91688e+00    9.84633e-01    7.29221e-01    5.40438e-01    7.29221e-01    2.46158e-01    1.35109e-01    1.35109e-01    2.46158e-01
    5.00000e+00    0.00000e+00    0.00000e+00    0.00000e+00    5.13497e+00    2.28222e+00    5.70543e-01    5.70526e-01    5.70577e-01    5.70526e-01    1.42768e-01    1.42520e-01    1.42768e-01    1.42520e-01    2.91688e+00    9.84633e-01    7.29221e-01    5.40438e-01    7.29221e-01    2.46158e-01    1.35109e-01    1.35109e-01    2.46158e-01
    6.00000e+00    0.00000e+00    0.00000e+00    0.00000e+00    5.13539e+00    2.28241e+00    5.70565e-01    5.70578e-01    5.70636e-01    5.70578e-01    1.42828e-01    1.42484e-01    1.42828e-01    1.42484e-01    2.91688e+00    9.84633e-01    7.29221e-01    5.40438e-01    7.29221e-01    2.46158e-01    1.35109e-01    1.35109e-01    2.46158e-01
    7.00000e+00    0.00000e+00    0.00000e+00    0.00000e+00    5.13593e+00    2.28265e+00    5.70633e-01    5.70632e-01    5.70697e-01    5.70632e-01    1.42890e-01    1.42451e-01    1.42890e-01    1.42451e-01    2.91688e+00    9.84633e-01    7.29221e-01    5.40438e-01    7.29221e-01    2.46158e-01    1.35109e-01    1.35109e-01    2.46158e-01
    8.00000e+00    0.00000e+00    0.00000e+00    0.00000e+00    5.13654e+00    2.28292e+00    5.70686e-01    5.70702e-01    5.70774e-01    5.70702e-01    1.42957e-01    1.42419e-01    1.42957e-01    1.42419e-01    2.91688e+00    9.84633e-01    7.29221e-01    5.40438e-01    7.29221e-01    2.46158e-01    1.35109e-01    1.35109e-01    2.46158e-01
    9.00000e+00    0.00000e+00    0.00000e+00    0.00000e+00    5.13725e+00    2.28324e+00    5.70766e-01    5.70780e-01    5.70856e-01    5.70780e-01    1.43024e-01    1.42389e-01    1.43024e-01    1.42389e-01    2.91688e+00    9.84633e-01    7.29221e-01    5.40438e-01    7.29221e-01    2.46158e-01    1.35109e-01    1.35109e-01    2.46158e-01
    1.00000e+01    0.00000e+00    0.00000e+00    0.00000e+00    5.13804e+00    2.28359e+00    5.70844e-01    5.70869e-01    5.70951e-01    5.70869e-01    1.43093e-01    1.42363e-01    1.43093e-01    1.42363e-01    2.91688e+00    9.84633e-01    7.29221e-01    5.40438e-01    7.29221e-01    2.46158e-01    1.35109e-01    1.35109e-01    2.46158e-01
    1.10000e+01    0.00000e+00    0.00000e+00    0.00000e+00    5.13891e+00    2.28398e+00    5.70940e-01    5.70965e-01    5.71052e-01    5.70965e-01    1.43163e-01    1.42341e-01    1.43163e-01    1.42341e-01    2.91688e+00    9.84633e-01    7.29221e-01    5.40438e-01    7.29221e-01    2.46158e-01    1.35109e-01    1.35109e-01    2.46158e-01
    1.20000e+01    0.00000e+00    0.00000e+00    0.00000e+00    5.13986e+00    2.28440e+00    5.71039e-01    5.71073e-01    5.71164e-01    5.71073e-01    1.43233e-01    1.42324e-01    1.43233e-01    1.42324e-01    2.91688e+00    9.84633e-01    7.29221e-01    5.40438e-01    7.29221e-01    2.46158e-01    1.35109e-01    1.35109e-01    2.46158e-01
    1.30000e+01    0.00000e+00    0.00000e+00    0.00000e+00    5.14090e+00    2.28486e+00    5.71150e-01    5.71190e-01    5.71282e-01    5.71190e-01    1.43300e-01    1.42312e-01    1.43300e-01    1.42312e-01    2.91688e+00    9.84633e-01    7.29221e-01    5.40438e-01    7.29221e-01    2.46158e-01    1.35109e-01    1.35109e-01    2.46158e-01
    1.40000e+01    0.00000e+00    0.00000e+00    0.00000e+00    5.14200e+00    2.28535e+00    5.71267e-01    5.71314e-01    5.71409e-01    5.71314e-01    1.43367e-01    1.42306e-01    1.43367e-01    1.42306e-01    2.91688e+00    9.84633e-01    7.29221e-01    5.40438e-01    7.29221e-01    2.46158e-01    1.35109e-01    1.35109e-01    2.46158e-01
    1.50000e+01    0.00000e+00    0.00000e+00    0.00000e+00    5.14317e+00    2.28587e+00    5.71393e-01    5.71446e-01    5.71541e-01    5.71446e-01    1.43429e-01    1.42308e-01    1.43429e-01    1.42308e-01    2.91688e+00    9.84633e-01    7.29221e-01    5.40438e-01    7.29221e-01    2.46158e-01    1.35109e-01    1.35109e-01    2.46158e-01
    1.60000e+01    0.00000e+00    0.00000e+00    0.00000e+00    5.14438e+00    2.28641e+00    5.71524e-01    5.71585e-01    5.71679e-01    5.71585e-01    1.43487e-01    1.42316e-01    1.43487e-01    1.42316e-01    2.91688e+00    9.84633e-01    7.29221e-01    5.40438e-01    7.29221e-01    2.46158e-01    1.35109e-01    1.35109e-01    2.46158e-01
    1.70000e+01    0.00000e+00    0.00000e+00    0.00000e+00    5.14565e+00    2.28696e+00    5.71661e-01    5.71730e-01    5.71821e-01    5.71730e-01    1.43538e-01    1.42334e-01    1.43538e-01    1.42334e-01    2.91688e+00    9.84633e-01    7.29221e-01    5.40438e-01    7.29221e-01    2.46158e-01    1.35109e-01    1.35109e-01    2.46158e-01
    1.80000e+01    0.00000e+00    0.00000e+00    0.00000e+00    5.14694e+00    2.28753e+00    5.71802e-01    5.71877e-01    5.71964e-01    5.71877e-01    1.43582e-01    1.42359e-01    1.43582e-01    1.42359e-01    2.91688e+00    9.84633e-01    7.29221e-01    5.40438e-01    7.29221e-01    2.46158e-01    1.35109e-01    1.35109e-01    2.46158e-01
    1.90000e+01    0.00000e+00    0.00000e+00    0.00000e+00    5.14824e+00    2.28811e+00    5.71946e-01    5.72027e-01    5.72109e-01    5.72027e-01    1.43616e-01    1.42396e-01    1.43616e-01    1.42396e-01    2.91688e+00    9.84633e-01    7.29221e-01    5.40438e-01    7.29221e-01    2.46158e-01    1.35109e-01    1.35109e-01    2.46158e-01
    2.00000e+01    0.00000e+00    0.00000e+00    0.00000e+00    5.14955e+00    2.28869e+00    5.72090e-01    5.72178e-01    5.72252e-01    5.72178e-01    1.43640e-01    1.42442e-01    1.43640e-01    1.42442e-01    2.91688e+00    9.84633e-01    7.29221e-01    5.40438e-01    7.29221e-01    2.46158e-01    1.35109e-01    1.35109e-01    2.46158e-01
    2.10000e+01    0.00000e+00    0.00000e+00    0.00000e+00    5.15083e+00    2.28925e+00    5.72234e-01    5.72327e-01    5.72392e-01    5.72327e-01    1.43654e-01    1.42497e-01    1.43654e-01    1.42497e-01    2.91688e+00    9.84633e-01    7.29221e-01    5.40438e-01    7.29221e-01    2.46158e-01    1.35109e-01    1.35109e-01    2.46158e-01
    2.20000e+01    0.00000e+00    0.00000e+00    0.00000e+00    5.15209e+00    2.28980e+00    5.72374e-01    5.72472e-01    5.72528e-01    5.72472e-01    1.43655e-01    1.42563e-01    1.43655e-01    1.42563e-01    2.91688e+00    9.84633e-01    7.29221e-01    5.40438e-01    7.29221e-01    2.46158e-01    1.35109e-01    1.35109e-01    2.46158e-01
    2.30000e+01    0.00000e+00    0.00000e+00    0.00000e+00    5.15329e+00    2.29034e+00    5.72510e-01    5.72611e-01    5.72657e-01    5.72611e-01    1.43645e-01    1.42638e-01    1.43645e-01    1.42638e-01    2.91688e+00    9.84633e-01    7.29221e-01    5.40438e-01    7.29221e-01    2.46158e-01    1.35109e-01    1.35109e-01    2.46158e-01
    2.40000e+01    0.00000e+00    0.00000e+00    0.00000e+00    5.15443e+00    2.29084e+00    5.72640e-01    5.72742e-01    5.72777e-01    5.72742e-01    1.43626e-01    1.42719e-01    1.43626e-01    1.42719e-01    2.91688e+00    9.84633e-01    7.29221e-01    5.40438e-01    7.29221e-01    2.46158e-01    1.35109e-01    1.35109e-01    2.46158e-01
    2.50000e+01    0.00000e+00    0.00000e+00    0.00000e+00    5.15549e+00    2.29130e+00    5.72762e-01    5.72865e-01    5.72889e-01    5.72865e-01    1.43597e-01    1.42805e-01    1.43597e-01    1.42805e-01    2.91688e+00    9.84633e-01    7.29221e-01    5.40438e-01    7.29221e-01    2.46158e-01    1.35109e-01    1.35109e-01    2.46158e-01
    2.60000e+01    0.00000e+00    0.00000e+00    0.00000e+00    5.15646e+00    2.29173e+00    5.72874e-01    5.72977e-01    5.72989e-01    5.72977e-01    1.43561e-01    1.42895e-01    1.43561e-01    1.42895e-01    2.91688e+00    9.84633e-01    7.29221e-01    5.40438e-01    7.29221e-01    2.46158e-01    1.35109e-01    1.35109e-01    2.46158e-01
    2.70000e+01    0.00000e+00    0.00000e+00    0.00000e+00    5.15733e+00    2.29211e+00    5.72976e-01    5.73076e-01    5.73080e-01    5.73076e-01    1.43520e-01    1.42984e-01    1.43520e-01    1.42984e-01    2.91688e+00    9.84633e-01    7.29221e-01    5.40438e-01    7.29221e-01    2.46158e-01    1.35109e-01    1.35109e-01    2.46158e-01
    2.80000e+01    0.00000e+00    0.00000e+00    0.00000e+00    5.15811e+00    2.29245e+00    5.73068e-01    5.73165e-01    5.73156e-01    5.73165e-01    1.43478e-01    1.43071e-01    1.43478e-01    1.43071e-01    2.91688e+00    9.84633e-01    7.29221e-01    5.40438e-01    7.29221e-01    2.46158e-01    1.35109e-01    1.35109e-01    2.46158e-01
    2.90000e+01    0.00000e+00    0.00000e+00    0.00000e+00    5.15878e+00    2.29275e+00    5.73148e-01    5.73240e-01    5.73228e-01    5.73240e-01    1.43436e-01    1.43152e-01    1.43436e-01    1.43152e-01    2.91688e+00    9.84633e-01    7.29221e-01    5.40438e-01    7.29221e-01    2.46158e-01    1.35109e-01    1.35109e-01    2.46158e-01
    3.00000e+01    0.00000e+00    0.00000e+00    0.00000e+00    5.15935e+00    2.29300e+00    5.73217e-01    5.73305e-01    5.73279e-01    5.73305e-01    1.43398e-01    1.43226e-01    1.43398e-01    1.43226e-01    2.91688e+00    9.84633e-01    7.29221e-01    5.40438e-01    7.29221e-01    2.46158e-01    1.35109e-01    1.35109e-01    2.46158e-01
    3.10000e+01    0.00000e+00    0.00000e+00    0.00000e+00    5.15984e+00    2.29321e+00    5.73274e-01    5.73357e-01    5.73334e-01    5.73357e-01    1.43365e-01    1.43288e-01    1.43365e-01    1.43288e-01    2.91688e+00    9.84633e-01    7.29221e-01    5.40438e-01    7.29221e-01    2.46158e-01    1.35109e-01    1.35109e-01    2.46158e-01
    3.20000e+01    0.00000e+00    0.00000e+00    0.00000e+00    5.16023e+00    2.29338e+00    5.73325e-01    5.73403e-01    5.73361e-01    5.73403e-01    1.43343e-01    1.43338e-01    1.43343e-01    1.43338e-01    2.91688e+00    9.84633e-01    7.29221e-01    5.40438e-01    7.29221e-01    2.46158e-01    1.35109e-01    1.35109e-01    2.46158e-01
    3.30000e+01    0.00000e+00    0.00000e+00    0.00000e+00    5.16056e+00    2.29352e+00    5.73361e-01    5.73432e-01    5.73407e-01    5.73432e-01    1.43327e-01    1.43377e-01    1.43327e-01    1.43377e-01    2.91688e+00    9.84633e-01    7.29221e-01    5.40438e-01    7.29221e-01    2.46158e-01    1.35109e-01    1.35109e-01    2.46158e-01
    3.40000e+01    0.00000e+00    0.00000e+00    0.00000e+00    5.16080e+00    2.29363e+00    5.73396e-01    5.73463e-01    5.73407e-01    5.73463e-01    1.43323e-01    1.43401e-01    1.43323e-01    1.43401e-01    2.91688e+00    9.84633e-01    7.29221e-01    5.40438e-01    7.29221e-01    2.46158e-01    1.35109e-01    1.35109e-01    2.46158e-01
    3.50000e+01    0.00000e+00    0.00000e+00    0.00000e+00    5.16104e+00    2.29373e+00    5.73415e-01    5.73480e-01    5.73464e-01    5.73480e-01    1.43327e-01    1.43410e-01    1.43327e-01    1.43410e-01    2.91688e+00    9.84633e-01    7.29221e-01    5.40438e-01    7.29221e-01    2.46158e-01    1.35109e-01    1.35109e-01    2.46158e-01
    3.60000e+01    0.00000e+00    0.00000e+00    0.00000e+00    5.16115e+00    2.29377e+00    5.73446e-01    5.73517e-01    5.73420e-01    5.73517e-01    1.43325e-01    1.43413e-01    1.43325e-01    1.43413e-01    2.91688e+00    9.84633e-01    7.29221e-01    5.40438e-01    7.29221e-01    2.46158e-01    1.35109e-01    1.35109e-01    2.46158e-01
    3.70000e+01    0.00000e+00    0.00000e+00    0.00000e+00    5.16131e+00    2.29384e+00    5.73441e-01    5.73500e-01    5.73511e-01    5.73500e-01    1.43346e-01    1.43411e-01    1.43346e-01    1.43411e-01    2.91688e+00    9.84633e-01    7.29221e-01    5.40438e-01    7.29221e-01    2.46158e-01    1.35109e-01    1.35109e-01    2.46158e-01
    3.80000e+01    0.00000e+00    0.00000e+00    0.00000e+00    5.16138e+00    2.29387e+00    5.73477e-01    5.73542e-01    5.73419e-01    5.73542e-01    1.43369e-01    1.43396e-01    1.43369e-01    1.43396e-01    2.91688e+00    9.84633e-01    7.29221e-01    5.40438e-01    7.29221e-01    2.46158e-01    1.35109e-01    1.35109e-01    2.46158e-01
    3.90000e+01    0.00000e+00    0.00000e+00    0.00000e+00    5.16113e+00    2.29375e+00    5.73461e-01    5.73458e-01    5.73461e-01    5.73458e-01    1.43360e-01    1.43407e-01    1.43360e-01    1.43407e-01    2.91688e+00    9.84633e-01    7.29221e-01    5.40438e-01    7.29221e-01    2.46158e-01    1.35109e-01    1.35109e-01    2.46158e-01
    0.00000e+00    1.00000e+00    0.00000e+00    0.00000e+00    5.13402e+00    2.28179e+00    5.70424e-01    5.70456e-01    5.70424e-01    5.70453e-01    1.42622e-01    1.42611e-01    1.42622e-01    1.42611e-01    2.91688e+00    9.84633e-01    7.29221e-01    5.40438e-01    7.29221e-01    2.46158e-01    1.35109e-01    1.35109e-01    2.46158e-01
    1.00000e+00    1.00000e+00    8.55733e-06    2.17929e-05    5.13409e+00    2.28183e+00    5.70476e-01    5.70470e-01    5.70453e-01    5.70396e-01    1.42629e-01    1.42625e-01    1.42599e-01    1.42617e-01    2.91688e+00    9.84633e-01    7.29221e-01    5.40438e-01    7.29221e-01    2.46158e-01    1.35109e-01    1.35109e-01    2.46158e-01
    2.00000e+00    1.00000e+00   -3.49671e-05    4.25978e-05    5.13423e+00    2.28189e+00    5.70488e-01    5.70475e-01    5.70611e-01    5.70321e-01    1.42613e-01    1.42642e-01    1.42609e-01    1.42582e-01    2.91688e+00    9.84633e-01    7.29221e-01    5.40438e-01    7.29221e-01    2.46158e-01    1.35109e-01    1.35109e-01    2.46158e-01
    3.00000e+00    1.00000e+00   -1.27925e-04    7.28249e-05    5.13443e+00    2.28198e+00    5.70374e-01    5.70523e-01    5.70818e-01    5.70261e-01    1.42606e-01    1.42686e-01    1.42657e-01    1.42524e-01    2.91688e+00    9.84633e-01    7.29221e-01    5.40438e-01    7.29221e-01    2.46158e-01    1.35109e-01    1.35109e-01    2.46158e-01
    4.00000e+00    1.00000e+00   -2.48425e-04    8.06317e-05    5.13469e+00    2.28210e+00    5.70225e-01    5.70536e-01    5.71083e-01    5.70244e-01    1.42588e-01    1.42728e-01    1.42736e-01    1.42458e-01    2.91688e+00    9.84633e-01    7.29221e-01    5.40438e-01    7.29221e-01    2.46158e-01    1.35109e-01    1.35109e-01    2.46158e-01
    5.00000e+00    1.00000e+00   -3.88944e-04    8.97448e-05    5.13506e+00    2.28226e+00    5.70034e-01    5.70585e-01    5.71377e-01    5.70256e-01    1.42562e-01    1.42777e-01    1.42823e-01    1.42383e-01    2.91688e+00    9.84633e-01    7.29221e-01    5.40438e-01    7.29221e-01    2.46158e-01    1.35109e-01    1.35109e-01    2.46158e-01
    6.00000e+00    1.00000e+00   -5.44209e-04    9.83004e-05    5.13550e+00    2.28246e+00    5.69834e-01    5.70627e-01    5.71710e-01    5.70269e-01    1.42545e-01    1.42828e-01    1.42931e-01    1.42296e-01    2.91688e+00    9.84633e-01    7.29221e-01    5.40438e-01    7.29221e-01    2.46158e-01    1.35109e-01    1.35109e-01    2.46158e-01
    7.00000e+00    1.00000e+00   -7.11240e-04    1.03233e-04    5.13603e+00    2.28269e+00    5.69612e-01    5.70692e-01    5.72062e-01    5.70315e-01    1.42520e-01    1.42883e-01    1.43045e-01    1.42205e-01    2.91688e+00    9.84633e-01    7.29221e-01    5.40438e-01    7.29221e-01    2.46158e-01    1.35109e-01    1.35109e-01    2.46158e-01
    8.00000e+00    1.00000e+00   -8.82007e-04    1.04639e-04    5.13664e+00    2.28297e+00    5.69389e-01    5.70759e-01    5.72427e-01    5.70377e-01    1.42498e-01    1.42940e-01    1.43167e-01    1.42116e-01    2.91688e+00    9.84633e-01    7.29221e-01    5.40438e-01    7.29221e-01    2.46158e-01    1.35109e-01    1.35109e-01    2.46158e-01
    9.00000e+00    1.00000e+00   -1.05257e-03    1.04132e-04    5.13734e+00    2.28328e+00    5.69172e-01    5.70839e-01    5.72797e-01    5.70457e-01    1.42477e-01    1.42999e-01    1.43292e-01    1.42031e-01    2.91688e+00    9.84633e-01    7.29221e-01    5.40438e-01    7.29221e-01    2.46158e-01    1.35109e-01    1.35109e-01    2.46158e-01
    1.00000e+01    1.00000e+00   -1.22031e-03    1.02438e-04    5.13813e+00    2.28363e+00    5.68969e-01    5.70925e-01    5.73170e-01    5.70549e-01    1.42461e-01    1.43058e-01    1.43421e-01    1.41949e-01    2.91688e+00    9.84633e-01    7.29221e-01    5.40438e-01    7.29221e-01    2.46158e-01    1.35109e-01    1.35109e-01    2.46158e-01
    1.10000e+01    1.00000e+00   -1.38248e-03    9.87774e-05    5.13900e+00    2.28401e+00    5.68780e-01    5.71022e-01    5.73540e-01    5.70659e-01    1.42447e-01    1.43118e-01    1.43547e-01    1.41874e-01    2.91688e+00    9.84633e-01    7.29221e-01    5.40438e-01    7.29221e-01    2.46158e-01    1.35109e-01    1.35109e-01    2.46158e-01
    1.20000e+01    1.00000e+00   -1.53608e-03    9.29483e-05    5.13995e+00    2.28443e+00    5.68612e-01    5.71126e-01    5.73901e-01    5.70784e-01    1.42437e-01    1.43177e-01    1.43672e-01    1.41806e-01    2.91688e+00    9.84633e-01    7.29221e-01    5.40438e-01    7.29221e-01    2.46158e-01    1.35109e-01    1.35109e-01    2.46158e-01
    1.30000e+01    1.00000e+00   -1.67830e-03    8.52226e-05    5.14097e+00    2.28488e+00    5.68469e-01    5.71239e-01    5.74248e-01    5.70923e-01    1.42430e-01    1.43235e-01    1.43794e-01    1.41749e-01    2.91688e+00    9.84633e-01    7.29221e-01    5.40438e-01    7.29221e-01    2.46158e-01    1.35109e-01    1.35109e-01    2.46158e-01
    1.40000e+01    1.00000e+00   -1.80574e-03    7.55387e-05    5.14206e+00    2.28537e+00    5.68356e-01    5.71359e-01    5.74573e-01    5.71077e-01    1.42429e-01    1.43291e-01    1.43909e-01    1.41704e-01    2.91688e+00    9.84633e-01    7.29221e-01    5.40438e-01    7.29221e-01    2.46158e-01    1.35109e-01    1.35109e-01    2.46158e-01
    1.50000e+01    1.00000e+00   -1.91479e-03    6.28239e-05    5.14322e+00    2.28588e+00    5.68276e-01    5.71485e-01    5.74871e-01    5.71249e-01    1.42432e-01    1.43343e-01    1.44015e-01    1.41672e-01    2.91688e+00    9.84633e-01    7.29221e-01    5.40438e-01    7.29221e-01    2.46158e-01    1.35109e-01    1.35109e-01    2.46158e-01
    1.60000e+01    1.00000e+00   -2.00149e-03    4.76228e-05    5.14443e+00    2.28641e+00    5.68237e-01    5.71615e-01    5.75131e-01    5.71435e-01    1.42441e-01    1.43391e-01    1.44110e-01    1.41657e-01    2.91688e+00    9.84633e-01    7.29221e-01    5.40438e-01    7.29221e-01    2.46158e-01    1.35109e-01    1.35109e-01    2.46158e-01
    1.70000e+01    1.00000e+00   -2.06176e-03    3.03294e-05    5.14567e+00    2.28696e+00    5.68244e-01    5.71750e-01    5.75346e-01    5.71632e-01    1.42457e-01    1.43434e-01    1.44191e-01    1.41661e-01    2.91688e+00    9.84633e-01    7.29221e-01    5.40438e-01    7.29221e-01    2.46158e-01    1.35109e-01    1.35109e-01    2.46158e-01
    1.80000e+01    1.00000e+00   -2.09179e-03    1.04901e-05    5.14695e+00    2.28752e+00    5.68302e-01    5.71888e-01    5.75509e-01    5.71842e-01    1.42479e-01    1.43469e-01    1.44255e-01    1.41685e-01    2.91688e+00    9.84633e-01    7.29221e-01    5.40438e-01    7.29221e-01    2.46158e-01    1.35109e-01    1.35109e-01    2.46158e-01
    1.90000e+01    1.00000e+00   -2.08831e-03   -1.16400e-05    5.14824e+00    2.28809e+00    5.68416e-01    5.72026e-01    5.75612e-01    5.72061e-01    1.42508e-01    1.43497e-01    1.44298e-01    1.41732e-01    2.91688e+00    9.84633e-01    7.29221e-01    5.40438e-01    7.29221e-01    2.46158e-01    1.35109e-01    1.35109e-01    2.46158e-01
    2.00000e+01    1.00000e+00   -2.04875e-03   -3.43359e-05    5.14953e+00    2.28866e+00    5.68589e-01    5.72164e-01    5.75650e-01    5.72281e-01    1.42546e-01    1.43517e-01    1.44319e-01    1.41802e-01    2.91688e+00    9.84633e-01    7.29221e-01    5.40438e-01    7.29221e-01    2.46158e-01    1.35109e-01    1.35109e-01    2.46158e-01
    2.10000e+01    1.00000e+00   -1.97196e-03   -5.75235e-05    5.15080e+00    2.28922e+00    5.68824e-01    5.72300e-01    5.75622e-01    5.72502e-01    1.42591e-01    1.43527e-01    1.44317e-01    1.41894e-01    2.91688e+00    9.84633e-01    7.29221e-01    5.40438e-01    7.29221e-01    2.46158e-01    1.35109e-01    1.35109e-01    2.46158e-01
    2.20000e+01    1.00000e+00   -1.85841e-03   -8.08089e-05    5.15203e+00    2.28977e+00    5.69120e-01    5.72431e-01    5.75528e-01    5.72720e-01    1.42643e-01    1.43528e-01    1.44290e-01    1.42008e-01    2.91688e+00    9.84633e-01    7.29221e-01    5.40438e-01    7.29221e-01    2.46158e-01    1.35109e-01    1.35109e-01    2.46158e-01
    2.30000e+01    1.00000e+00   -1.71018e-03   -1.01983e-04    5.15322e+00    2.29029e+00    5.69473e-01    5.72558e-01    5.75371e-01    5.72924e-01    1.42702e-01    1.43521e-01    1.44239e-01    1.42143e-01    2.91688e+00    9.84633e-01    7.29221e-01    5.40438e-01    7.29221e-01    2.46158e-01    1.35109e-01    1.35109e-01    2.46158e-01
    2.40000e+01    1.00000e+00   -1.53139e-03   -1.20201e-04    5.15435e+00    2.29079e+00    5.69876e-01    5.72677e-01    5.75159e-01    5.73111e-01    1.42768e-01    1.43506e-01    1.44167e-01    1.42293e-01    2.91688e+00    9.84633e-01    7.29221e-01    5.40438e-01    7.29221e-01    2.46158e-01    1.35109e-01    1.35109e-01    2.46158e-01
    2.50000e+01    1.00000e+00   -1.32812e-03   -1.35385e-04    5.15540e+00    2.29125e+00    5.70320e-01    5.72789e-01    5.74903e-01    5.73279e-01    1.42839e-01    1.43484e-01    1.44075e-01    1.42456e-01    2.91688e+00    9.84633e-01    7.29221e-01    5.40438e-01    7.29221e-01    2.46158e-01    1.35109e-01    1.35109e-01    2.46158e-01
    2.60000e+01    1.00000e+00   -1.10802e-03   -1.45966e-04    5.15636e+00    2.29168e+00    5.70792e-01    5.72891e-01    5.74617e-01    5.73420e-01    1.42912e-01    1.43457e-01    1.43968e-01    1.42624e-01    2.91688e+00    9.84633e-01    7.29221e-01    5.40438e-01    7.29221e-01    2.46158e-01    1.35109e-01    1.35109e-01    2.46158e-01
    2.70000e+01    1.00000e+00   -8.80075e-04   -1.50811e-04    5.15723e+00    2.29206e+00    5.71277e-01    5.72984e-01    5.74316e-01    5.73531e-01    1.42987e-01    1.43428e-01    1.43852e-01    1.42794e-01    2.91688e+00    9.84633e-01    7.29221e-01    5.40438e-01    7.29221e-01    2.46158e-01    1.35109e-01    1.35109e-01    2.46158e-01
    2.80000e+01    1.00000e+00   -6.54033e-04   -1.51057e-04    5.15801e+00    2.29240e+00    5.71758e-01    5.73066e-01    5.74017e-01    5.73613e-01    1.43061e-01    1.43398e-01    1.43733e-01    1.42957e-01    2.91688e+00    9.84633e-01    7.29221e-01    5.40438e-01    7.29221e-01    2.46158e-01    1.35109e-01    1.35109e-01    2.46158e-01
    2.90000e+01    1.00000e+00   -4.39699e-04   -1.45772e-04    5.15868e+00    2.29270e+00    5.72217e-01    5.73139e-01    5.73738e-01    5.73666e-01    1.43130e-01    1.43370e-01    1.43616e-01    1.43108e-01    2.91688e+00    9.84633e-01    7.29221e-01    5.40438e-01    7.29221e-01    2.46158e-01    1.35109e-01    1.35109e-01    2.46158e-01
    3.00000e+01    1.00000e+00   -2.46641e-04   -1.35739e-04    5.15927e+00    2.29295e+00    5.72638e-01    5.73199e-01    5.73493e-01    5.73690e-01    1.43195e-01    1.43345e-01    1.43509e-01    1.43242e-01    2.91688e+00    9.84633e-01    7.29221e-01    5.40438e-01    7.29221e-01    2.46158e-01    1.35109e-01    1.35109e-01    2.46158e-01
    3.10000e+01    1.00000e+00   -8.30023e-05   -1.21220e-04    5.15976e+00    2.29317e+00    5.73006e-01    5.73253e-01    5.73296e-01    5.73689e-01    1.43251e-01    1.43326e-01    1.43415e-01    1.43353e-01    2.91688e+00    9.84633e-01    7.29221e-01    5.40438e-01    7.29221e-01    2.46158e-01    1.35109e-01    1.35109e-01    2.46158e-01
    3.20000e+01    1.00000e+00    4.55018e-05   -1.05254e-04    5.16017e+00    2.29335e+00    5.73308e-01    5.73294e-01    5.73155e-01    5.73670e-01    1.43300e-01    1.43313e-01    1.43343e-01    1.43437e-01    2.91688e+00    9.84633e-01    7.29221e-01    5.40438e-01    7.29221e-01    2.46158e-01    1.35109e-01    1.35109e-01    2.46158e-01
    3.30000e+01    1.00000e+00    1.34624e-04   -8.52759e-05    5.16051e+00    2.29349e+00    5.73538e-01    5.73335e-01    5.73078e-01    5.73637e-01    1.43336e-01    1.43307e-01    1.43288e-01    1.43493e-01    2.91688e+00    9.84633e-01    7.29221e-01    5.40438e-01    7.29221e-01    2.46158e-01    1.35109e-01    1.35109e-01    2.46158e-01
    3.40000e+01    1.00000e+00    1.80499e-04   -6.56287e-05    5.16077e+00    2.29361e+00    5.73690e-01    5.73357e-01    5.73070e-01    5.73587e-01    1.43363e-01    1.43312e-01    1.43261e-01    1.43523e-01    2.91688e+00    9.84633e-01    7.29221e-01    5.40438e-01    7.29221e-01    2.46158e-01    1.35109e-01    1.35109e-01    2.46158e-01
    3.50000e+01    1.00000e+00    1.88216e-04   -4.90648e-05    5.16099e+00    2.29371e+00    5.73757e-01    5.73390e-01    5.73112e-01    5.73555e-01    1.43377e-01    1.43316e-01    1.43258e-01    1.43523e-01    2.91688e+00    9.84633e-01    7.29221e-01    5.40438e-01    7.29221e-01    2.46158e-01    1.35109e-01    1.35109e-01    2.46158e-01
    3.60000e+01    1.00000e+00    1.64644e-04   -4.59906e-05    5.16116e+00    2.29377e+00    5.73765e-01    5.73380e-01    5.73197e-01    5.73535e-01    1.43384e-01    1.43326e-01    1.43284e-01    1.43508e-01    2.91688e+00    9.84633e-01    7.29221e-01    5.40438e-01    7.29221e-01    2.46158e-01    1.35109e-01    1.35109e-01    2.46158e-01
    3.70000e+01    1.00000e+00    1.26812e-04   -2.76941e-05    5.16127e+00    2.29382e+00    5.73712e-01    5.73426e-01    5.73271e-01    5.73511e-01    1.43391e-01    1.43342e-01    1.43313e-01    1.43478e-01    2.91688e+00    9.84633e-01    7.29221e-01    5.40438e-01    7.29221e-01    2.46158e-01    1.35109e-01    1.35109e-01    2.46158e-01
    3.80000e+01    1.00000e+00    7.45296e-05   -4.15696e-05    5.16134e+00    2.29386e+00    5.73655e-01    5.73406e-01    5.73405e-01    5.73534e-01    1.43381e-01    1.43320e-01    1.43358e-01    1.43430e-01    2.91688e+00    9.84633e-01    7.29221e-01    5.40438e-01    7.29221e-01    2.46158e-01    1.35109e-01    1.35109e-01    2.46158e-01
    3.90000e+01    1.00000e+00    0.00000e+00    0.00000e+00    5.16140e+00    2.29388e+00    5.73548e-01    5.73422e-01    5.73548e-01    5.73484e-01    1.43366e-01    1.43393e-01    1.43366e-01    1.43393e-01    2.91688e+00    9.84633e-01    7.29221e-01    5.40438e-01    7.29221e-01    2.46158e-01    1.35109e-01    1.35109e-01    2.46158e-01
    0.00000e+00    2.00000e+00    0.00000e+00    0.00000e+00    5.13420e+00    2.28187e+00    5.70463e-01    5.70437e-01    5.70463e-01    5.70486e-01    1.42621e-01    1.42617e-01    1.42621e-01    1.42617e-01    2.91688e+00    9.84633e-01    7.29221e-01    5.40438e-01    7.29221e-01    2.46158e-01    1.35109e-01    1.35109e-01    2.46158e-01
    1.00000e+00    2.00000e+00   -7.00824e-06    4.47710e-05    5.13424e+00    2.28190e+00    5.70478e-01    5.70531e-01    5.70508e-01    5.70380e-01    1.42608e-01    1.42657e-01    1.42572e-01    1.42615e-01    2.91688e+00    9.84633e-01    7.29221e-01    5.40438e-01    7.29221e-01    2.46158e-01    1.35109e-01    1.35109e-01    2.46158e-01
    2.00000e+00    2.00000e+00   -6.97795e-05    1.38354e-04    5.13437e+00    2.28195e+00    5.70468e-01    5.70617e-01    5.70710e-01    5.70143e-01    1.42633e-01    1.42724e-01    1.42573e-01    1.42548e-01    2.91688e+00    9.84633e-01    7.29221e-01    5.40438e-01    7.29221e-01    2.46158e-01    1.35109e-01    1.35109e-01    2.46158e-01
    3.00000e+00    2.00000e+00   -2.08515e-04    2.16719e-04    5.13457e+00    2.28204e+00    5.70316e-01    5.70708e-01    5.71033e-01    5.69967e-01    1.42638e-01    1.42800e-01    1.42629e-01    1.42437e-01    2.91688e+00    9.84633e-01    7.29221e-01    5.40438e-01    7.29221e-01    2.46158e-01    1.35109e-01    1.35109e-01    2.46158e-01
    4.00000e+00    2.00000e+00   -4.04738e-04    2.67976e-04    5.13485e+00    2.28217e+00    5.70062e-01    5.70776e-01    5.71444e-01    5.69861e-01    1.42608e-01    1.42892e-01    1.42725e-01    1.42313e-01    2.91688e+00    9.84633e-01    7.29221e-01    5.40438e-01    7.29221e-01    2.46158e-01    1.35109e-01    1.35109e-01    2.46158e-01
    5.00000e+00    2.00000e+00   -6.44793e-04    3.01768e-04    5.13520e+00    2.28232e+00    5.69727e-01    5.70836e-01    5.71933e-01    5.69804e-01    1.42551e-01    1.42997e-01    1.42844e-01    1.42184e-01    2.91688e+00    9.84633e-01    7.29221e-01    5.40438e-01    7.29221e-01    2.46158e-01    1.35109e-01    1.35109e-01    2.46158e-01