TITLE="LBM output"
VARIABLES = "X", "Y", "U","V","density","f0","f1","f2","f3","f4","f5","f6","f7","f8","feq0","feq1","feq2","feq3","feq4","feq5","feq6","feq7","feq8",
ZONE T = "fluid", I=40, J=40, F=POINT
SOLUTIONTIME=339
    0.00000e+00    0.00000e+00    0.00000e+00    0.00000e+00    5.01709e+00    2.22990e+00    5.57453e-01    5.57452e-01    5.57453e-01    5.57452e-01    1.39321e-01    1.39369e-01    1.39321e-01    1.39369e-01    2.86065e+00    9.65650e-01    7.15162e-01    5.30018e-01    7.15162e-01    2.41413e-01    1.32505e-01    1.32505e-01    2.41413e-01
    1.00000e+00    0.00000e+00    0.00000e+00    0.00000e+00    5.01689e+00    2.22978e+00    5.57495e-01    5.57376e-01    5.57439e-01    5.57376e-01    1.39353e-01    1.39361e-01    1.39353e-01    1.39361e-01    2.86065e+00    9.65650e-01    7.15162e-01    5.30018e-01    7.15162e-01    2.41413e-01    1.32505e-01    1.32505e-01    2.41413e-01
    2.00000e+00    0.00000e+00    0.00000e+00    0.00000e+00    5.01729e+00    2.22992e+00    5.57392e-01    5.57467e-01    5.57540e-01    5.57467e-01    1.39408e-01    1.39348e-01    1.39408e-01    1.39348e-01    2.86065e+00    9.65650e-01    7.15162e-01    5.30018e-01    7.15162e-01    2.41413e-01    1.32505e-01    1.32505e-01    2.41413e-01
    3.00000e+00    0.00000e+00    0.00000e+00    0.00000e+00    5.01816e+00    2.23026e+00    5.57540e-01    5.57541e-01    5.57608e-01    5.57541e-01    1.39484e-01    1.39351e-01    1.39484e-01    1.39351e-01    2.86065e+00    9.65650e-01    7.15162e-01    5.30018e-01    7.15162e-01    2.41413e-01    1.32505e-01    1.32505e-01    2.41413e-01
    4.00000e+00    0.00000e+00    0.00000e+00    0.00000e+00    5.01917e+00    2.23065e+00    5.57574e-01    5.57697e-01    5.57748e-01    5.57697e-01    1.39590e-01    1.39310e-01    1.39590e-01    1.39310e-01    2.86065e+00    9.65650e-01    7.15162e-01    5.30018e-01    7.15162e-01    2.41413e-01    1.32505e-01    1.32505e-01    2.41413e-01
    5.00000e+00    0.00000e+00    0.00000e+00    0.00000e+00    5.02064e+00    2.23125e+00    5.57723e-01    5.57878e-01    5.57909e-01    5.57878e-01    1.39708e-01    1.39290e-01    1.39708e-01    1.39290e-01    2.86065e+00    9.65650e-01    7.15162e-01    5.30018e-01    7.15162e-01    2.41413e-01    1.32505e-01    1.32505e-01    2.41413e-01
    6.00000e+00    0.00000e+00    0.00000e+00    0.00000e+00    5.02235e+00    2.23197e+00    5.57873e-01    5.58092e-01    5.58107e-01    5.58092e-01    1.39847e-01    1.39261e-01    1.39847e-01    1.39261e-01    2.86065e+00    9.65650e-01    7.15162e-01    5.30018e-01    7.15162e-01    2.41413e-01    1.32505e-01    1.32505e-01    2.41413e-01
    7.00000e+00    0.00000e+00    0.00000e+00    0.00000e+00    5.02432e+00    2.23281e+00    5.58075e-01    5.58327e-01    5.58329e-01    5.58327e-01    1.39994e-01    1.39233e-01    1.39994e-01    1.39233e-01    2.86065e+00    9.65650e-01    7.15162e-01    5.30018e-01    7.15162e-01    2.41413e-01    1.32505e-01    1.32505e-01    2.41413e-01
    8.00000e+00    0.00000e+00    0.00000e+00    0.00000e+00    5.02643e+00    2.23373e+00    5.58294e-01    5.58576e-01    5.58566e-01    5.58576e-01    1.40140e-01    1.39204e-01    1.40140e-01    1.39204e-01    2.86065e+00    9.65650e-01    7.15162e-01    5.30018e-01    7.15162e-01    2.41413e-01    1.32505e-01    1.32505e-01    2.41413e-01
    9.00000e+00    0.00000e+00    0.00000e+00    0.00000e+00    5.02857e+00    2.23468e+00    5.58536e-01    5.58821e-01    5.58802e-01    5.58821e-01    1.40276e-01    1.39179e-01    1.40276e-01    1.39179e-01    2.86065e+00    9.65650e-01    7.15162e-01    5.30018e-01    7.15162e-01    2.41413e-01    1.32505e-01    1.32505e-01    2.41413e-01
    1.00000e+01    0.00000e+00    0.00000e+00    0.00000e+00    5.03062e+00    2.23561e+00    5.58776e-01    5.59050e-01    5.59025e-01    5.59050e-01    1.40395e-01    1.39158e-01    1.40395e-01    1.39158e-01    2.86065e+00    9.65650e-01    7.15162e-01    5.30018e-01    7.15162e-01    2.41413e-01    1.32505e-01    1.32505e-01    2.41413e-01
    1.10000e+01    0.00000e+00    0.00000e+00    0.00000e+00    5.03246e+00    2.23646e+00    5.59006e-01    5.59249e-01    5.59221e-01    5.59249e-01    1.40490e-01    1.39146e-01    1.40490e-01    1.39146e-01    2.86065e+00    9.65650e-01    7.15162e-01    5.30018e-01    7.15162e-01    2.41413e-01    1.32505e-01    1.32505e-01    2.41413e-01
    1.20000e+01    0.00000e+00    0.00000e+00    0.00000e+00    5.03400e+00    2.23719e+00    5.59208e-01    5.59412e-01    5.59383e-01    5.59412e-01    1.40560e-01    1.39141e-01    1.40560e-01    1.39141e-01    2.86065e+00    9.65650e-01    7.15162e-01    5.30018e-01    7.15162e-01    2.41413e-01    1.32505e-01    1.32505e-01    2.41413e-01
    1.30000e+01    0.00000e+00    0.00000e+00    0.00000e+00    5.03523e+00    2.23777e+00    5.59374e-01    5.59537e-01    5.59508e-01    5.59537e-01    1.40606e-01    1.39146e-01    1.40606e-01    1.39146e-01    2.86065e+00    9.65650e-01    7.15162e-01    5.30018e-01    7.15162e-01    2.41413e-01    1.32505e-01    1.32505e-01    2.41413e-01
    1.40000e+01    0.00000e+00    0.00000e+00    0.00000e+00    5.03616e+00    2.23821e+00    5.59503e-01    5.59629e-01    5.59601e-01    5.59629e-01    1.40635e-01    1.39157e-01    1.40635e-01    1.39157e-01    2.86065e+00    9.65650e-01    7.15162e-01    5.30018e-01    7.15162e-01    2.41413e-01    1.32505e-01    1.32505e-01    2.41413e-01
    1.50000e+01    0.00000e+00    0.00000e+00    0.00000e+00    5.03685e+00    2.23854e+00    5.59597e-01    5.59696e-01    5.59672e-01    5.59696e-01    1.40650e-01    1.39175e-01    1.40650e-01    1.39175e-01    2.86065e+00    9.65650e-01    7.15162e-01    5.30018e-01    7.15162e-01    2.41413e-01    1.32505e-01    1.32505e-01    2.41413e-01
    1.60000e+01    0.00000e+00    0.00000e+00    0.00000e+00    5.03740e+00    2.23880e+00    5.59668e-01    5.59750e-01    5.59731e-01    5.59750e-01    1.40656e-01    1.39197e-01    1.40656e-01    1.39197e-01    2.86065e+00    9.65650e-01    7.15162e-01    5.30018e-01    7.15162e-01    2.41413e-01    1.32505e-01    1.32505e-01    2.41413e-01
    1.70000e+01    0.00000e+00    0.00000e+00    0.00000e+00    5.03792e+00    2.23903e+00    5.59727e-01    5.59800e-01    5.59790e-01    5.59800e-01    1.40659e-01    1.39223e-01    1.40659e-01    1.39223e-01    2.86065e+00    9.65650e-01    7.15162e-01    5.30018e-01    7.15162e-01    2.41413e-01    1.32505e-01    1.32505e-01    2.41413e-01
    1.80000e+01    0.00000e+00    0.00000e+00    0.00000e+00    5.03846e+00    2.23929e+00    5.59785e-01    5.59853e-01    5.59858e-01    5.59853e-01    1.40660e-01    1.39252e-01    1.40660e-01    1.39252e-01    2.86065e+00    9.65650e-01    7.15162e-01    5.30018e-01    7.15162e-01    2.41413e-01    1.32505e-01    1.32505e-01    2.41413e-01
    1.90000e+01    0.00000e+00    0.00000e+00    0.00000e+00    5.03909e+00    2.23958e+00    5.59852e-01    5.59916e-01    5.59937e-01    5.59916e-01    1.40658e-01    1.39287e-01    1.40658e-01    1.39287e-01    2.86065e+00    9.65650e-01    7.15162e-01    5.30018e-01    7.15162e-01    2.41413e-01    1.32505e-01    1.32505e-01    2.41413e-01
    2.00000e+01    0.00000e+00    0.00000e+00    0.00000e+00    5.03981e+00    2.23992e+00    5.59931e-01    5.59989e-01    5.60029e-01    5.59989e-01    1.40651e-01    1.39327e-01    1.40651e-01    1.39327e-01    2.86065e+00    9.65650e-01    7.15162e-01    5.30018e-01    7.15162e-01    2.41413e-01    1.32505e-01    1.32505e-01    2.41413e-01
    2.10000e+01    0.00000e+00    0.00000e+00    0.00000e+00    5.04062e+00    2.24030e+00    5.60022e-01    5.60071e-01    5.60128e-01    5.60071e-01    1.40638e-01    1.39375e-01    1.40638e-01    1.39375e-01    2.86065e+00    9.65650e-01    7.15162e-01    5.30018e-01    7.15162e-01    2.41413e-01    1.32505e-01    1.32505e-01    2.41413e-01
    2.20000e+01    0.00000e+00    0.00000e+00    0.00000e+00    5.04145e+00    2.24069e+00    5.60120e-01    5.60158e-01    5.60227e-01    5.60158e-01    1.40618e-01    1.39431e-01    1.40618e-01    1.39431e-01    2.86065e+00    9.65650e-01    7.15162e-01    5.30018e-01    7.15162e-01    2.41413e-01    1.32505e-01    1.32505e-01    2.41413e-01
    2.30000e+01    0.00000e+00    0.00000e+00    0.00000e+00    5.04226e+00    2.24107e+00    5.60218e-01    5.60245e-01    5.60316e-01    5.60245e-01    1.40588e-01    1.39496e-01    1.40588e-01    1.39496e-01    2.86065e+00    9.65650e-01    7.15162e-01    5.30018e-01    7.15162e-01    2.41413e-01    1.32505e-01    1.32505e-01    2.41413e-01
    2.40000e+01    0.00000e+00    0.00000e+00    0.00000e+00    5.04298e+00    2.24139e+00    5.60307e-01    5.60326e-01    5.60390e-01    5.60326e-01    1.40550e-01    1.39568e-01    1.40550e-01    1.39568e-01    2.86065e+00    9.65650e-01    7.15162e-01    5.30018e-01    7.15162e-01    2.41413e-01    1.32505e-01    1.32505e-01    2.41413e-01
    2.50000e+01    0.00000e+00    0.00000e+00    0.00000e+00    5.04354e+00    2.24164e+00    5.60380e-01    5.60394e-01    5.60438e-01    5.60394e-01    1.40506e-01    1.39643e-01    1.40506e-01    1.39643e-01    2.86065e+00    9.65650e-01    7.15162e-01    5.30018e-01    7.15162e-01    2.41413e-01    1.32505e-01    1.32505e-01    2.41413e-01
    2.60000e+01    0.00000e+00    0.00000e+00    0.00000e+00    5.04391e+00    2.24178e+00    5.60430e-01    5.60444e-01    5.60461e-01    5.60444e-01    1.40454e-01    1.39719e-01    1.40454e-01    1.39719e-01    2.86065e+00    9.65650e-01    7.15162e-01    5.30018e-01    7.15162e-01    2.41413e-01    1.32505e-01    1.32505e-01    2.41413e-01
    2.70000e+01    0.00000e+00    0.00000e+00    0.00000e+00    5.04405e+00    2.24181e+00    5.60453e-01    5.60474e-01    5.60453e-01    5.60474e-01    1.40400e-01    1.39791e-01    1.40400e-01    1.39791e-01    2.86065e+00    9.65650e-01    7.15162e-01    5.30018e-01    7.15162e-01    2.41413e-01    1.32505e-01    1.32505e-01    2.41413e-01
    2.80000e+01    0.00000e+00    0.00000e+00    0.00000e+00    5.04397e+00    2.24174e+00    5.60447e-01    5.60482e-01    5.60422e-01    5.60482e-01    1.40344e-01    1.39857e-01    1.40344e-01    1.39857e-01    2.86065e+00    9.65650e-01    7.15162e-01    5.30018e-01    7.15162e-01    2.41413e-01    1.32505e-01    1.32505e-01    2.41413e-01
    2.90000e+01    0.00000e+00    0.00000e+00    0.00000e+00    5.04371e+00    2.24157e+00    5.60417e-01    5.60471e-01    5.60367e-01    5.60471e-01    1.40289e-01    1.39914e-01    1.40289e-01    1.39914e-01    2.86065e+00    9.65650e-01    7.15162e-01    5.30018e-01    7.15162e-01    2.41413e-01    1.32505e-01    1.32505e-01    2.41413e-01
    3.00000e+01    0.00000e+00    0.00000e+00    0.00000e+00    5.04329e+00    2.24134e+00    5.60366e-01    5.60442e-01    5.60306e-01    5.60442e-01    1.40233e-01    1.39963e-01    1.40233e-01    1.39963e-01    2.86065e+00    9.65650e-01    7.15162e-01    5.30018e-01    7.15162e-01    2.41413e-01    1.32505e-01    1.32505e-01    2.41413e-01
    3.10000e+01    0.00000e+00    0.00000e+00    0.00000e+00    5.04276e+00    2.24106e+00    5.60303e-01    5.60401e-01    5.60224e-01    5.60401e-01    1.40184e-01    1.40000e-01    1.40184e-01    1.40000e-01    2.86065e+00    9.65650e-01    7.15162e-01    5.30018e-01    7.15162e-01    2.41413e-01    1.32505e-01    1.32505e-01    2.41413e-01
    3.20000e+01    0.00000e+00    0.00000e+00    0.00000e+00    5.04219e+00    2.24077e+00    5.60230e-01    5.60350e-01    5.60162e-01    5.60350e-01    1.40133e-01    1.40031e-01    1.40133e-01    1.40031e-01    2.86065e+00    9.65650e-01    7.15162e-01    5.30018e-01    7.15162e-01    2.41413e-01    1.32505e-01    1.32505e-01    2.41413e-01
    3.30000e+01    0.00000e+00    0.00000e+00    0.00000e+00    5.04158e+00    2.24047e+00    5.60158e-01    5.60300e-01    5.60065e-01    5.60300e-01    1.40090e-01    1.40052e-01    1.40090e-01    1.40052e-01    2.86065e+00    9.65650e-01    7.15162e-01    5.30018e-01    7.15162e-01    2.41413e-01    1.32505e-01    1.32505e-01    2.41413e-01
    3.40000e+01    0.00000e+00    0.00000e+00    0.00000e+00    5.04099e+00    2.24019e+00    5.60081e-01    5.60233e-01    5.60028e-01    5.60233e-01    1.40046e-01    1.40068e-01    1.40046e-01    1.40068e-01    2.86065e+00    9.65650e-01    7.15162e-01    5.30018e-01    7.15162e-01    2.41413e-01    1.32505e-01    1.32505e-01    2.41413e-01
    3.50000e+01    0.00000e+00    0.00000e+00    0.00000e+00    5.04043e+00    2.23992e+00    5.60019e-01    5.60185e-01    5.59927e-01    5.60185e-01    1.40020e-01    1.40078e-01    1.40020e-01    1.40078e-01    2.86065e+00    9.65650e-01    7.15162e-01    5.30018e-01    7.15162e-01    2.41413e-01    1.32505e-01    1.32505e-01    2.41413e-01
    3.60000e+01    0.00000e+00    0.00000e+00    0.00000e+00    5.03977e+00    2.23963e+00    5.59947e-01    5.60103e-01    5.59874e-01    5.60103e-01    1.39974e-01    1.40083e-01    1.39974e-01    1.40083e-01    2.86065e+00    9.65650e-01    7.15162e-01    5.30018e-01    7.15162e-01    2.41413e-01    1.32505e-01    1.32505e-01    2.41413e-01
    3.70000e+01    0.00000e+00    0.00000e+00    0.00000e+00    5.03949e+00    2.23949e+00    5.59881e-01    5.60068e-01    5.59892e-01    5.60068e-01    1.39975e-01    1.40068e-01    1.39975e-01    1.40068e-01    2.86065e+00    9.65650e-01    7.15162e-01    5.30018e-01    7.15162e-01    2.41413e-01    1.32505e-01    1.32505e-01    2.41413e-01
    3.80000e+01    0.00000e+00    0.00000e+00    0.00000e+00    5.03875e+00    2.23917e+00    5.59861e-01    5.60019e-01    5.59637e-01    5.60019e-01    1.39950e-01    1.40072e-01    1.39950e-01    1.40072e-01    2.86065e+00    9.65650e-01    7.15162e-01    5.30018e-01    7.15162e-01    2.41413e-01    1.32505e-01    1.32505e-01    2.41413e-01
    3.90000e+01    0.00000e+00    0.00000e+00    0.00000e+00    5.03763e+00    2.23872e+00    5.59749e-01    5.59750e-01    5.59749e-01    5.59750e-01    1.39920e-01    1.40035e-01    1.39920e-01    1.40035e-01    2.86065e+00    9.65650e-01    7.15162e-01    5.30018e-01    7.15162e-01    2.41413e-01    1.32505e-01    1.32505e-01    2.41413e-01
    0.00000e+00    1.00000e+00    0.00000e+00    0.00000e+00    5.01688e+00    2.22977e+00    5.57390e-01    5.57496e-01    5.57390e-01    5.57439e-01    1.39338e-01    1.39361e-01    1.39338e-01    1.39361e-01    2.86065e+00    9.65650e-01    7.15162e-01    5.30018e-01    7.15162e-01    2.41413e-01    1.32505e-01    1.32505e-01    2.41413e-01
    1.00000e+00    1.00000e+00    1.28799e-05    6.96761e-05    5.01710e+00    2.22985e+00    5.57503e-01    5.57513e-01    5.57479e-01    5.57285e-01    1.39414e-01    1.39382e-01    1.39332e-01    1.39342e-01    2.86065e+00    9.65650e-01    7.15162e-01    5.30018e-01    7.15162e-01    2.41413e-01    1.32505e-01    1.32505e-01    2.41413e-01
    2.00000e+00    1.00000e+00   -7.07326e-05    6.39506e-05    5.01757e+00    2.23003e+00    5.57519e-01    5.57505e-01    5.57747e-01    5.57286e-01    1.39380e-01    1.39412e-01    1.39393e-01    1.39297e-01    2.86065e+00    9.65650e-01    7.15162e-01    5.30018e-01    7.15162e-01    2.41413e-01    1.32505e-01    1.32505e-01    2.41413e-01
    3.00000e+00    1.00000e+00   -2.11514e-04    6.13545e-05    5.01834e+00    2.23033e+00    5.57362e-01    5.57600e-01    5.58074e-01    5.57371e-01    1.39358e-01    1.39483e-01    1.39493e-01    1.39269e-01    2.86065e+00    9.65650e-01    7.15162e-01    5.30018e-01    7.15162e-01    2.41413e-01    1.32505e-01    1.32505e-01    2.41413e-01
    4.00000e+00    1.00000e+00   -3.81747e-04    3.84356e-05    5.01945e+00    2.23077e+00    5.57230e-01    5.57658e-01    5.58519e-01    5.57508e-01    1.39343e-01    1.39560e-01    1.39634e-01    1.39225e-01    2.86065e+00    9.65650e-01    7.15162e-01    5.30018e-01    7.15162e-01    2.41413e-01    1.32505e-01    1.32505e-01    2.41413e-01
    5.00000e+00    1.00000e+00   -5.90863e-04    1.43647e-05    5.02089e+00    2.23136e+00    5.57052e-01    5.57783e-01    5.59048e-01    5.57704e-01    1.39309e-01    1.39659e-01    1.39797e-01    1.39177e-01    2.86065e+00    9.65650e-01    7.15162e-01    5.30018e-01    7.15162e-01    2.41413e-01    1.32505e-01    1.32505e-01    2.41413e-01
    6.00000e+00    1.00000e+00   -8.28405e-04   -6.57226e-06    5.02261e+00    2.23208e+00    5.56856e-01    5.57932e-01    5.59658e-01    5.57920e-01    1.39287e-01    1.39771e-01    1.39989e-01    1.39114e-01    2.86065e+00    9.65650e-01    7.15162e-01    5.30018e-01    7.15162e-01    2.41413e-01    1.32505e-01    1.32505e-01    2.41413e-01
    7.00000e+00    1.00000e+00   -1.08532e-03   -2.77725e-05    5.02455e+00    2.23291e+00    5.56640e-01    5.58120e-01    5.60312e-01    5.58176e-01    1.39260e-01    1.39895e-01    1.40192e-01    1.39047e-01    2.86065e+00    9.65650e-01    7.15162e-01    5.30018e-01    7.15162e-01    2.41413e-01    1.32505e-01    1.32505e-01    2.41413e-01
    8.00000e+00    1.00000e+00   -1.34539e-03   -4.46407e-05    5.02662e+00    2.23381e+00    5.56422e-01    5.58332e-01    5.60978e-01    5.58443e-01    1.39239e-01    1.40022e-01    1.40399e-01    1.38975e-01    2.86065e+00    9.65650e-01    7.15162e-01    5.30018e-01    7.15162e-01    2.41413e-01    1.32505e-01    1.32505e-01    2.41413e-01
    9.00000e+00    1.00000e+00   -1.59380e-03   -5.59789e-05    5.02871e+00    2.23474e+00    5.56217e-01    5.58561e-01    5.61617e-01    5.58710e-01    1.39224e-01    1.40145e-01    1.40597e-01    1.38904e-01    2.86065e+00    9.65650e-01    7.15162e-01    5.30018e-01    7.15162e-01    2.41413e-01    1.32505e-01    1.32505e-01    2.41413e-01
    1.00000e+01    1.00000e+00   -1.81700e-03   -6.07232e-05    5.03071e+00    2.23564e+00    5.56037e-01    5.58792e-01    5.62194e-01    5.58958e-01    1.39219e-01    1.40255e-01    1.40779e-01    1.38833e-01    2.86065e+00    9.65650e-01    7.15162e-01    5.30018e-01    7.15162e-01    2.41413e-01    1.32505e-01    1.32505e-01    2.41413e-01
    1.10000e+01    1.00000e+00   -2.00437e-03   -6.07339e-05    5.03250e+00    2.23647e+00    5.55889e-01    5.59011e-01    5.62683e-01    5.59181e-01    1.39222e-01    1.40346e-01    1.40936e-01    1.38767e-01    2.86065e+00    9.65650e-01    7.15162e-01    5.30018e-01    7.15162e-01    2.41413e-01    1.32505e-01    1.32505e-01    2.41413e-01
    1.20000e+01    1.00000e+00   -2.15020e-03   -5.76636e-05    5.03402e+00    2.23718e+00    5.55781e-01    5.59204e-01    5.63069e-01    5.59368e-01    1.39234e-01    1.40415e-01    1.41065e-01    1.38710e-01    2.86065e+00    9.65650e-01    7.15162e-01    5.30018e-01    7.15162e-01    2.41413e-01    1.32505e-01    1.32505e-01    2.41413e-01
    1.30000e+01    1.00000e+00   -2.25446e-03   -5.33142e-05    5.03525e+00    2.23776e+00    5.55712e-01    5.59365e-01    5.63352e-01    5.59519e-01    1.39252e-01    1.40462e-01    1.41165e-01    1.38663e-01    2.86065e+00    9.65650e-01    7.15162e-01    5.30018e-01    7.15162e-01    2.41413e-01    1.32505e-01    1.32505e-01    2.41413e-01
    1.40000e+01    1.00000e+00   -2.32133e-03   -4.91810e-05    5.03619e+00    2.23820e+00    5.55679e-01    5.59492e-01    5.63544e-01    5.59637e-01    1.39275e-01    1.40490e-01    1.41239e-01    1.38628e-01    2.86065e+00    9.65650e-01    7.15162e-01    5.30018e-01    7.15162e-01    2.41413e-01    1.32505e-01    1.32505e-01    2.41413e-01
    1.50000e+01    1.00000e+00   -2.35766e-03   -4.70471e-05    5.03691e+00    2.23854e+00    5.55679e-01    5.59589e-01    5.63664e-01    5.59732e-01    1.39298e-01    1.40505e-01    1.41290e-01    1.38606e-01    2.86065e+00    9.65650e-01    7.15162e-01    5.30018e-01    7.15162e-01    2.41413e-01    1.32505e-01    1.32505e-01    2.41413e-01
    1.60000e+01    1.00000e+00   -2.37042e-03   -4.61999e-05    5.03749e+00    2.23882e+00    5.55708e-01    5.59666e-01    5.63734e-01    5.59811e-01    1.39322e-01    1.40511e-01    1.41324e-01    1.38598e-01    2.86065e+00    9.65650e-01    7.15162e-01    5.30018e-01    7.15162e-01    2.41413e-01    1.32505e-01    1.32505e-01    2.41413e-01
    1.70000e+01    1.00000e+00   -2.36458e-03   -4.55804e-05    5.03802e+00    2.23906e+00    5.55765e-01    5.59736e-01    5.63769e-01    5.59881e-01    1.39347e-01    1.40515e-01    1.41343e-01    1.38603e-01    2.86065e+00    9.65650e-01    7.15162e-01    5.30018e-01    7.15162e-01    2.41413e-01    1.32505e-01    1.32505e-01    2.41413e-01
    1.80000e+01    1.00000e+00   -2.34226e-03   -4.47446e-05    5.03858e+00    2.23932e+00    5.55852e-01    5.59808e-01    5.63779e-01    5.59954e-01    1.39374e-01    1.40518e-01    1.41351e-01    1.38620e-01    2.86065e+00    9.65650e-01    7.15162e-01    5.30018e-01    7.15162e-01    2.41413e-01    1.32505e-01    1.32505e-01    2.41413e-01
    1.90000e+01    1.00000e+00   -2.30276e-03   -4.31720e-05    5.03919e+00    2.23961e+00    5.55973e-01    5.59889e-01    5.63767e-01    5.60033e-01    1.39404e-01    1.40520e-01    1.41346e-01    1.38651e-01    2.86065e+00    9.65650e-01    7.15162e-01    5.30018e-01    7.15162e-01    2.41413e-01    1.32505e-01    1.32505e-01    2.41413e-01
    2.00000e+01    1.00000e+00   -2.24343e-03   -3.99201e-05    5.03989e+00    2.23994e+00    5.56135e-01    5.59981e-01    5.63728e-01    5.60118e-01    1.39442e-01    1.40521e-01    1.41332e-01    1.38696e-01    2.86065e+00    9.65650e-01    7.15162e-01    5.30018e-01    7.15162e-01    2.41413e-01    1.32505e-01    1.32505e-01    2.41413e-01
    2.10000e+01    1.00000e+00   -2.16136e-03   -3.65566e-05    5.04066e+00    2.24030e+00    5.56341e-01    5.60082e-01    5.63655e-01    5.60211e-01    1.39488e-01    1.40517e-01    1.41307e-01    1.38755e-01    2.86065e+00    9.65650e-01    7.15162e-01    5.30018e-01    7.15162e-01    2.41413e-01    1.32505e-01    1.32505e-01    2.41413e-01
    2.20000e+01    1.00000e+00   -2.05480e-03   -3.49983e-05    5.04144e+00    2.24067e+00    5.56590e-01    5.60185e-01    5.63542e-01    5.60312e-01    1.39541e-01    1.40506e-01    1.41270e-01    1.38827e-01    2.86065e+00    9.65650e-01    7.15162e-01    5.30018e-01    7.15162e-01    2.41413e-01    1.32505e-01    1.32505e-01    2.41413e-01
    2.30000e+01    1.00000e+00   -1.92399e-03   -3.64594e-05    5.04220e+00    2.24102e+00    5.56878e-01    5.60280e-01    5.63385e-01    5.60415e-01    1.39601e-01    1.40486e-01    1.41223e-01    1.38913e-01    2.86065e+00    9.65650e-01    7.15162e-01    5.30018e-01    7.15162e-01    2.41413e-01    1.32505e-01    1.32505e-01    2.41413e-01
    2.40000e+01    1.00000e+00   -1.77153e-03   -4.23659e-05    5.04288e+00    2.24133e+00    5.57194e-01    5.60358e-01    5.63182e-01    5.60516e-01    1.39665e-01    1.40455e-01    1.41166e-01    1.39010e-01    2.86065e+00    9.65650e-01    7.15162e-01    5.30018e-01    7.15162e-01    2.41413e-01    1.32505e-01    1.32505e-01    2.41413e-01
    2.50000e+01    1.00000e+00   -1.60216e-03   -5.48714e-05    5.04341e+00    2.24156e+00    5.57526e-01    5.60411e-01    5.62937e-01    5.60613e-01    1.39728e-01    1.40413e-01    1.41101e-01    1.39116e-01    2.86065e+00    9.65650e-01    7.15162e-01    5.30018e-01    7.15162e-01    2.41413e-01    1.32505e-01    1.32505e-01    2.41413e-01
    2.60000e+01    1.00000e+00   -1.42191e-03   -7.32117e-05    5.04376e+00    2.24170e+00    5.57860e-01    5.60435e-01    5.62656e-01    5.60700e-01    1.39788e-01    1.40363e-01    1.41027e-01    1.39227e-01    2.86065e+00    9.65650e-01    7.15162e-01    5.30018e-01    7.15162e-01    2.41413e-01    1.32505e-01    1.32505e-01    2.41413e-01
    2.70000e+01    1.00000e+00   -1.23703e-03   -9.68309e-05    5.04391e+00    2.24174e+00    5.58181e-01    5.60427e-01    5.62348e-01    5.60772e-01    1.39841e-01    1.40307e-01    1.40948e-01    1.39342e-01    2.86065e+00    9.65650e-01    7.15162e-01    5.30018e-01    7.15162e-01    2.41413e-01    1.32505e-01    1.32505e-01    2.41413e-01
    2.80000e+01    1.00000e+00   -1.05347e-03   -1.24001e-04    5.04385e+00    2.24168e+00    5.58481e-01    5.60390e-01    5.62024e-01    5.60828e-01    1.39884e-01    1.40247e-01    1.40863e-01    1.39456e-01    2.86065e+00    9.65650e-01    7.15162e-01    5.30018e-01    7.15162e-01    2.41413e-01    1.32505e-01    1.32505e-01    2.41413e-01
    2.90000e+01    1.00000e+00   -8.75888e-04   -1.54001e-04    5.04362e+00    2.24154e+00    5.58753e-01    5.60329e-01    5.61692e-01    5.60867e-01    1.39918e-01    1.40186e-01    1.40776e-01    1.39566e-01    2.86065e+00    9.65650e-01    7.15162e-01    5.30018e-01    7.15162e-01    2.41413e-01    1.32505e-01    1.32505e-01    2.41413e-01
    3.00000e+01    1.00000e+00   -7.07237e-04   -1.82496e-04    5.04325e+00    2.24133e+00    5.58995e-01    5.60253e-01    5.61364e-01    5.60887e-01    1.39941e-01    1.40128e-01    1.40683e-01    1.39673e-01    2.86065e+00    9.65650e-01    7.15162e-01    5.30018e-01    7.15162e-01    2.41413e-01    1.32505e-01    1.32505e-01    2.41413e-01
    3.10000e+01    1.00000e+00   -5.48994e-04   -2.09156e-04    5.04278e+00    2.24108e+00    5.59209e-01    5.60166e-01    5.61042e-01    5.60889e-01    1.39959e-01    1.40073e-01    1.40593e-01    1.39771e-01    2.86065e+00    9.65650e-01    7.15162e-01    5.30018e-01    7.15162e-01    2.41413e-01    1.32505e-01    1.32505e-01    2.41413e-01
    3.20000e+01    1.00000e+00   -4.02952e-04   -2.29760e-04    5.04225e+00    2.24080e+00    5.59399e-01    5.60081e-01    5.60742e-01    5.60872e-01    1.39967e-01    1.40024e-01    1.40495e-01    1.39864e-01    2.86065e+00    9.65650e-01    7.15162e-01    5.30018e-01    7.15162e-01    2.41413e-01    1.32505e-01    1.32505e-01    2.41413e-01
    3.30000e+01    1.00000e+00   -2.70238e-04   -2.47356e-04    5.04169e+00    2.24053e+00    5.59565e-01    5.59989e-01    5.60459e-01    5.60837e-01    1.39976e-01    1.39981e-01    1.40409e-01    1.39946e-01    2.86065e+00    9.65650e-01    7.15162e-01    5.30018e-01    7.15162e-01    2.41413e-01    1.32505e-01    1.32505e-01    2.41413e-01
    3.40000e+01    1.00000e+00   -1.49418e-04   -2.54074e-04    5.04113e+00    2.24026e+00    5.59711e-01    5.59921e-01    5.60201e-01    5.60789e-01    1.39977e-01    1.39942e-01    1.40314e-01    1.40017e-01    2.86065e+00    9.65650e-01    7.15162e-01    5.30018e-01    7.15162e-01    2.41413e-01    1.32505e-01    1.32505e-01    2.41413e-01
    3.50000e+01    1.00000e+00   -4.67145e-05   -2.57614e-04    5.04059e+00    2.24000e+00    5.59842e-01    5.59841e-01    5.59987e-01    5.60715e-01    1.39981e-01    1.39908e-01    1.40238e-01    1.40075e-01    2.86065e+00    9.65650e-01    7.15162e-01    5.30018e-01    7.15162e-01    2.41413e-01    1.32505e-01    1.32505e-01    2.41413e-01
    3.60000e+01    1.00000e+00    2.84721e-05   -2.41600e-04    5.04007e+00    2.23976e+00    5.59935e-01    5.59783e-01    5.59834e-01    5.60614e-01    1.39974e-01    1.39903e-01    1.40147e-01    1.40117e-01    2.86065e+00    9.65650e-01    7.15162e-01    5.30018e-01    7.15162e-01    2.41413e-01    1.32505e-01    1.32505e-01    2.41413e-01
    3.70000e+01    1.00000e+00    8.58482e-05   -2.40302e-04    5.03957e+00    2.23954e+00    5.59990e-01    5.59741e-01    5.59672e-01    5.60534e-01    1.39973e-01    1.39866e-01    1.40124e-01    1.40132e-01    2.86065e+00    9.65650e-01    7.15162e-01    5.30018e-01    7.15162e-01    2.41413e-01    1.32505e-01    1.32505e-01    2.41413e-01
    3.80000e+01    1.00000e+00    1.10530e-04   -2.26271e-04    5.03907e+00    2.23932e+00    5.60011e-01    5.59649e-01    5.59678e-01    5.60400e-01    1.39962e-01    1.39849e-01    1.40045e-01    1.40155e-01    2.86065e+00    9.65650e-01    7.15162e-01    5.30018e-01    7.15162e-01    2.41413e-01    1.32505e-01    1.32505e-01    2.41413e-01
    3.90000e+01    1.00000e+00    0.00000e+00    0.00000e+00    5.03876e+00    2.23918e+00    5.59981e-01    5.59637e-01    5.59981e-01    5.59859e-01    1.39947e-01    1.40113e-01    1.39947e-01    1.40113e-01    2.86065e+00    9.65650e-01    7.15162e-01    5.30018e-01    7.15162e-01    2.41413e-01    1.32505e-01    1.32505e-01    2.41413e-01
    0.00000e+00    2.00000e+00    0.00000e+00    0.00000e+00    5.01717e+00    2.22987e+00    5.57472e-01    5.57391e-01    5.57472e-01    5.57509e-01    1.39336e-01    1.39396e-01    1.39336e-01    1.39396e-01    2.86065e+00    9.65650e-01    7.15162e-01    5.30018e-01    7.15162e-01    2.41413e-01    1.32505e-01    1.32505e-01    2.41413e-01
    1.00000e+00    2.00000e+00   -2.69962e-05    1.21510e-04    5.01742e+00    2.22996e+00    5.57480e-01    5.57666e-01    5.57585e-01    5.57249e-01    1.39390e-01    1.39443e-01    1.39309e-01    1.39331e-01    2.86065e+00    9.65650e-01    7.15162e-01    5.30018e-01    7.15162e-01    2.41413e-01    1.32505e-01    1.32505e-01    2.41413e-01
    2.00000e+00    2.00000e+00   -1.22152e-04    1.80608e-04    5.01792e+00    2.23016e+00    5.57472e-01    5.57735e-01    5.57873e-01    5.57128e-01    1.39410e-01    1.39515e-01    1.39367e-01    1.39260e-01    2.86065e+00    9.65650e-01    7.15162e-01    5.30018e-01    7.15162e-01    2.41413e-01    1.32505e-01    1.32505e-01    2.41413e-01
    3.00000e+00    2.00000e+00   -2.93231e-04    1.88786e-04    5.01873e+00    2.23048e+00    5.57313e-01    5.57790e-01    5.58297e-01    5.57168e-01    1.39398e-01    1.39607e-01    1.39479e-01    1.39200e-01    2.86065e+00    9.65650e-01    7.15162e-01    5.30018e-01    7.15162e-01    2.41413e-01    1.32505e-01    1.32505e-01    2.41413e-01
    4.00000e+00    2.00000e+00   -5.18665e-04    1.81660e-04    5.01991e+00    2.23096e+00    5.57107e-01    5.57879e-01    5.58843e-01    5.57285e-01    1.39352e-01    1.39726e-01    1.39627e-01    1.39133e-01    2.86065e+00    9.65650e-01    7.15162e-01    5.30018e-01    7.15162e-01    2.41413e-01    1.32505e-01    1.32505e-01    2.41413e-01
    5.00000e+00    2.00000e+00   -7.96897e-04    1.58764e-04    5.02136e+00    2.23156e+00    5.56842e-01    5.57975e-01    5.59506e-01    5.57459e-01    1.39280e-01    1.39873e-01    1.39808e-01    1.39064e-01    2.86065e+00    9.65650e-01    7.15162e-01    5.30018e-01    7.15162e-01    2.41413e-01    1.32505e-01    1.32505e-01    2.41413e-01