TITLE="LBM output"
VARIABLES = "X", "Y", "U","V","density","f0","f1","f2","f3","f4","f5","f6","f7","f8","feq0","feq1","feq2","feq3","feq4","feq5","feq6","feq7","feq8",
ZONE T = "fluid", I=40, J=40, F=POINT
SOLUTIONTIME=1255
    0.00000e+00    0.00000e+00    0.00000e+00    0.00000e+00    5.14276e+00    2.28588e+00    5.71410e-01    5.71411e-01    5.71410e-01    5.71411e-01    1.42752e-01    1.42867e-01    1.42752e-01    1.42867e-01    2.91119e+00    9.82710e-01    7.27796e-01    5.39382e-01    7.27796e-01    2.45677e-01    1.34846e-01    1.34846e-01    2.45677e-01
    1.00000e+00    0.00000e+00    0.00000e+00    0.00000e+00    5.14195e+00    2.28551e+00    5.71517e-01    5.71193e-01    5.71338e-01    5.71193e-01    1.42754e-01    1.42844e-01    1.42754e-01    1.42844e-01    2.91119e+00    9.82710e-01    7.27796e-01    5.39382e-01    7.27796e-01    2.45677e-01    1.34846e-01    1.34846e-01    2.45677e-01
    2.00000e+00    0.00000e+00    0.00000e+00    0.00000e+00    5.14190e+00    2.28549e+00    5.71265e-01    5.71257e-01    5.71415e-01    5.71257e-01    1.42748e-01    1.42863e-01    1.42748e-01    1.42863e-01    2.91119e+00    9.82710e-01    7.27796e-01    5.39382e-01    7.27796e-01    2.45677e-01    1.34846e-01    1.34846e-01    2.45677e-01
    3.00000e+00    0.00000e+00    0.00000e+00    0.00000e+00    5.14214e+00    2.28559e+00    5.71455e-01    5.71211e-01    5.71375e-01    5.71211e-01    1.42750e-01    1.42898e-01    1.42750e-01    1.42898e-01    2.91119e+00    9.82710e-01    7.27796e-01    5.39382e-01    7.27796e-01    2.45677e-01    1.34846e-01    1.34846e-01    2.45677e-01
    4.00000e+00    0.00000e+00    0.00000e+00    0.00000e+00    5.14212e+00    2.28557e+00    5.71350e-01    5.71256e-01    5.71417e-01    5.71256e-01    1.42772e-01    1.42861e-01    1.42772e-01    1.42861e-01    2.91119e+00    9.82710e-01    7.27796e-01    5.39382e-01    7.27796e-01    2.45677e-01    1.34846e-01    1.34846e-01    2.45677e-01
    5.00000e+00    0.00000e+00    0.00000e+00    0.00000e+00    5.14239e+00    2.28568e+00    5.71424e-01    5.71278e-01    5.71428e-01    5.71278e-01    1.42786e-01    1.42862e-01    1.42786e-01    1.42862e-01    2.91119e+00    9.82710e-01    7.27796e-01    5.39382e-01    7.27796e-01    2.45677e-01    1.34846e-01    1.34846e-01    2.45677e-01
    6.00000e+00    0.00000e+00    0.00000e+00    0.00000e+00    5.14259e+00    2.28576e+00    5.71417e-01    5.71311e-01    5.71460e-01    5.71311e-01    1.42815e-01    1.42847e-01    1.42815e-01    1.42847e-01    2.91119e+00    9.82710e-01    7.27796e-01    5.39382e-01    7.27796e-01    2.45677e-01    1.34846e-01    1.34846e-01    2.45677e-01
    7.00000e+00    0.00000e+00    0.00000e+00    0.00000e+00    5.14289e+00    2.28589e+00    5.71458e-01    5.71344e-01    5.71490e-01    5.71344e-01    1.42847e-01    1.42835e-01    1.42847e-01    1.42835e-01    2.91119e+00    9.82710e-01    7.27796e-01    5.39382e-01    7.27796e-01    2.45677e-01    1.34846e-01    1.34846e-01    2.45677e-01
    8.00000e+00    0.00000e+00    0.00000e+00    0.00000e+00    5.14321e+00    2.28602e+00    5.71481e-01    5.71387e-01    5.71527e-01    5.71387e-01    1.42882e-01    1.42821e-01    1.42882e-01    1.42821e-01    2.91119e+00    9.82710e-01    7.27796e-01    5.39382e-01    7.27796e-01    2.45677e-01    1.34846e-01    1.34846e-01    2.45677e-01
    9.00000e+00    0.00000e+00    0.00000e+00    0.00000e+00    5.14357e+00    2.28617e+00    5.71521e-01    5.71434e-01    5.71565e-01    5.71434e-01    1.42918e-01    1.42806e-01    1.42918e-01    1.42806e-01    2.91119e+00    9.82710e-01    7.27796e-01    5.39382e-01    7.27796e-01    2.45677e-01    1.34846e-01    1.34846e-01    2.45677e-01
    1.00000e+01    0.00000e+00    0.00000e+00    0.00000e+00    5.14395e+00    2.28633e+00    5.71556e-01    5.71484e-01    5.71606e-01    5.71484e-01    1.42956e-01    1.42792e-01    1.42956e-01    1.42792e-01    2.91119e+00    9.82710e-01    7.27796e-01    5.39382e-01    7.27796e-01    2.45677e-01    1.34846e-01    1.34846e-01    2.45677e-01
    1.10000e+01    0.00000e+00    0.00000e+00    0.00000e+00    5.14436e+00    2.28649e+00    5.71598e-01    5.71535e-01    5.71649e-01    5.71535e-01    1.42995e-01    1.42779e-01    1.42995e-01    1.42779e-01    2.91119e+00    9.82710e-01    7.27796e-01    5.39382e-01    7.27796e-01    2.45677e-01    1.34846e-01    1.34846e-01    2.45677e-01
    1.20000e+01    0.00000e+00    0.00000e+00    0.00000e+00    5.14478e+00    2.28667e+00    5.71640e-01    5.71590e-01    5.71693e-01    5.71590e-01    1.43034e-01    1.42767e-01    1.43034e-01    1.42767e-01    2.91119e+00    9.82710e-01    7.27796e-01    5.39382e-01    7.27796e-01    2.45677e-01    1.34846e-01    1.34846e-01    2.45677e-01
    1.30000e+01    0.00000e+00    0.00000e+00    0.00000e+00    5.14521e+00    2.28684e+00    5.71684e-01    5.71646e-01    5.71738e-01    5.71646e-01    1.43071e-01    1.42757e-01    1.43071e-01    1.42757e-01    2.91119e+00    9.82710e-01    7.27796e-01    5.39382e-01    7.27796e-01    2.45677e-01    1.34846e-01    1.34846e-01    2.45677e-01
    1.40000e+01    0.00000e+00    0.00000e+00    0.00000e+00    5.14565e+00    2.28702e+00    5.71729e-01    5.71703e-01    5.71783e-01    5.71703e-01    1.43108e-01    1.42748e-01    1.43108e-01    1.42748e-01    2.91119e+00    9.82710e-01    7.27796e-01    5.39382e-01    7.27796e-01    2.45677e-01    1.34846e-01    1.34846e-01    2.45677e-01
    1.50000e+01    0.00000e+00    0.00000e+00    0.00000e+00    5.14609e+00    2.28720e+00    5.71773e-01    5.71760e-01    5.71827e-01    5.71760e-01    1.43142e-01    1.42742e-01    1.43142e-01    1.42742e-01    2.91119e+00    9.82710e-01    7.27796e-01    5.39382e-01    7.27796e-01    2.45677e-01    1.34846e-01    1.34846e-01    2.45677e-01
    1.60000e+01    0.00000e+00    0.00000e+00    0.00000e+00    5.14653e+00    2.28738e+00    5.71818e-01    5.71817e-01    5.71872e-01    5.71817e-01    1.43171e-01    1.42740e-01    1.43171e-01    1.42740e-01    2.91119e+00    9.82710e-01    7.27796e-01    5.39382e-01    7.27796e-01    2.45677e-01    1.34846e-01    1.34846e-01    2.45677e-01
    1.70000e+01    0.00000e+00    0.00000e+00    0.00000e+00    5.14696e+00    2.28756e+00    5.71863e-01    5.71875e-01    5.71916e-01    5.71875e-01    1.43197e-01    1.42742e-01    1.43197e-01    1.42742e-01    2.91119e+00    9.82710e-01    7.27796e-01    5.39382e-01    7.27796e-01    2.45677e-01    1.34846e-01    1.34846e-01    2.45677e-01
    1.80000e+01    0.00000e+00    0.00000e+00    0.00000e+00    5.14739e+00    2.28773e+00    5.71907e-01    5.71932e-01    5.71959e-01    5.71932e-01    1.43217e-01    1.42748e-01    1.43217e-01    1.42748e-01    2.91119e+00    9.82710e-01    7.27796e-01    5.39382e-01    7.27796e-01    2.45677e-01    1.34846e-01    1.34846e-01    2.45677e-01
    1.90000e+01    0.00000e+00    0.00000e+00    0.00000e+00    5.14781e+00    2.28790e+00    5.71949e-01    5.71988e-01    5.72000e-01    5.71988e-01    1.43230e-01    1.42761e-01    1.43230e-01    1.42761e-01    2.91119e+00    9.82710e-01    7.27796e-01    5.39382e-01    7.27796e-01    2.45677e-01    1.34846e-01    1.34846e-01    2.45677e-01
    2.00000e+01    0.00000e+00    0.00000e+00    0.00000e+00    5.14822e+00    2.28807e+00    5.71992e-01    5.72043e-01    5.72041e-01    5.72043e-01    1.43235e-01    1.42781e-01    1.43235e-01    1.42781e-01    2.91119e+00    9.82710e-01    7.27796e-01    5.39382e-01    7.27796e-01    2.45677e-01    1.34846e-01    1.34846e-01    2.45677e-01
    2.10000e+01    0.00000e+00    0.00000e+00    0.00000e+00    5.14861e+00    2.28823e+00    5.72032e-01    5.72096e-01    5.72080e-01    5.72096e-01    1.43234e-01    1.42807e-01    1.43234e-01    1.42807e-01    2.91119e+00    9.82710e-01    7.27796e-01    5.39382e-01    7.27796e-01    2.45677e-01    1.34846e-01    1.34846e-01    2.45677e-01
    2.20000e+01    0.00000e+00    0.00000e+00    0.00000e+00    5.14899e+00    2.28838e+00    5.72072e-01    5.72148e-01    5.72117e-01    5.72148e-01    1.43224e-01    1.42840e-01    1.43224e-01    1.42840e-01    2.91119e+00    9.82710e-01    7.27796e-01    5.39382e-01    7.27796e-01    2.45677e-01    1.34846e-01    1.34846e-01    2.45677e-01
    2.30000e+01    0.00000e+00    0.00000e+00    0.00000e+00    5.14935e+00    2.28853e+00    5.72109e-01    5.72197e-01    5.72153e-01    5.72197e-01    1.43206e-01    1.42880e-01    1.43206e-01    1.42880e-01    2.91119e+00    9.82710e-01    7.27796e-01    5.39382e-01    7.27796e-01    2.45677e-01    1.34846e-01    1.34846e-01    2.45677e-01
    2.40000e+01    0.00000e+00    0.00000e+00    0.00000e+00    5.14970e+00    2.28866e+00    5.72145e-01    5.72244e-01    5.72186e-01    5.72244e-01    1.43183e-01    1.42925e-01    1.43183e-01    1.42925e-01    2.91119e+00    9.82710e-01    7.27796e-01    5.39382e-01    7.27796e-01    2.45677e-01    1.34846e-01    1.34846e-01    2.45677e-01
    2.50000e+01    0.00000e+00    0.00000e+00    0.00000e+00    5.15002e+00    2.28880e+00    5.72179e-01    5.72287e-01    5.72218e-01    5.72287e-01    1.43154e-01    1.42975e-01    1.43154e-01    1.42975e-01    2.91119e+00    9.82710e-01    7.27796e-01    5.39382e-01    7.27796e-01    2.45677e-01    1.34846e-01    1.34846e-01    2.45677e-01
    2.60000e+01    0.00000e+00    0.00000e+00    0.00000e+00    5.15033e+00    2.28892e+00    5.72211e-01    5.72328e-01    5.72247e-01    5.72328e-01    1.43121e-01    1.43027e-01    1.43121e-01    1.43027e-01    2.91119e+00    9.82710e-01    7.27796e-01    5.39382e-01    7.27796e-01    2.45677e-01    1.34846e-01    1.34846e-01    2.45677e-01
    2.70000e+01    0.00000e+00    0.00000e+00    0.00000e+00    5.15061e+00    2.28903e+00    5.72241e-01    5.72364e-01    5.72276e-01    5.72364e-01    1.43087e-01    1.43079e-01    1.43087e-01    1.43079e-01    2.91119e+00    9.82710e-01    7.27796e-01    5.39382e-01    7.27796e-01    2.45677e-01    1.34846e-01    1.34846e-01    2.45677e-01
    2.80000e+01    0.00000e+00    0.00000e+00    0.00000e+00    5.15087e+00    2.28914e+00    5.72270e-01    5.72398e-01    5.72298e-01    5.72398e-01    1.43055e-01    1.43129e-01    1.43055e-01    1.43129e-01    2.91119e+00    9.82710e-01    7.27796e-01    5.39382e-01    7.27796e-01    2.45677e-01    1.34846e-01    1.34846e-01    2.45677e-01
    2.90000e+01    0.00000e+00    0.00000e+00    0.00000e+00    5.15111e+00    2.28924e+00    5.72295e-01    5.72426e-01    5.72325e-01    5.72426e-01    1.43026e-01    1.43175e-01    1.43026e-01    1.43175e-01    2.91119e+00    9.82710e-01    7.27796e-01    5.39382e-01    7.27796e-01    2.45677e-01    1.34846e-01    1.34846e-01    2.45677e-01
    3.00000e+01    0.00000e+00    0.00000e+00    0.00000e+00    5.15132e+00    2.28933e+00    5.72319e-01    5.72453e-01    5.72340e-01    5.72453e-01    1.43002e-01    1.43214e-01    1.43002e-01    1.43214e-01    2.91119e+00    9.82710e-01    7.27796e-01    5.39382e-01    7.27796e-01    2.45677e-01    1.34846e-01    1.34846e-01    2.45677e-01
    3.10000e+01    0.00000e+00    0.00000e+00    0.00000e+00    5.15153e+00    2.28941e+00    5.72340e-01    5.72475e-01    5.72369e-01    5.72475e-01    1.42985e-01    1.43245e-01    1.42985e-01    1.43245e-01    2.91119e+00    9.82710e-01    7.27796e-01    5.39382e-01    7.27796e-01    2.45677e-01    1.34846e-01    1.34846e-01    2.45677e-01
    3.20000e+01    0.00000e+00    0.00000e+00    0.00000e+00    5.15170e+00    2.28948e+00    5.72362e-01    5.72497e-01    5.72372e-01    5.72497e-01    1.42979e-01    1.43265e-01    1.42979e-01    1.43265e-01    2.91119e+00    9.82710e-01    7.27796e-01    5.39382e-01    7.27796e-01    2.45677e-01    1.34846e-01    1.34846e-01    2.45677e-01
    3.30000e+01    0.00000e+00    0.00000e+00    0.00000e+00    5.15187e+00    2.28955e+00    5.72376e-01    5.72508e-01    5.72409e-01    5.72508e-01    1.42981e-01    1.43276e-01    1.42981e-01    1.43276e-01    2.91119e+00    9.82710e-01    7.27796e-01    5.39382e-01    7.27796e-01    2.45677e-01    1.34846e-01    1.34846e-01    2.45677e-01
    3.40000e+01    0.00000e+00    0.00000e+00    0.00000e+00    5.15197e+00    2.28960e+00    5.72397e-01    5.72528e-01    5.72386e-01    5.72528e-01    1.42993e-01    1.43277e-01    1.42993e-01    1.43277e-01    2.91119e+00    9.82710e-01    7.27796e-01    5.39382e-01    7.27796e-01    2.45677e-01    1.34846e-01    1.34846e-01    2.45677e-01
    3.50000e+01    0.00000e+00    0.00000e+00    0.00000e+00    5.15217e+00    2.28968e+00    5.72400e-01    5.72534e-01    5.72463e-01    5.72534e-01    1.43018e-01    1.43259e-01    1.43018e-01    1.43259e-01    2.91119e+00    9.82710e-01    7.27796e-01    5.39382e-01    7.27796e-01    2.45677e-01    1.34846e-01    1.34846e-01    2.45677e-01
    3.60000e+01    0.00000e+00    0.00000e+00    0.00000e+00    5.15215e+00    2.28967e+00    5.72436e-01    5.72579e-01    5.72360e-01    5.72579e-01    1.43019e-01    1.43243e-01    1.43019e-01    1.43243e-01    2.91119e+00    9.82710e-01    7.27796e-01    5.39382e-01    7.27796e-01    2.45677e-01    1.34846e-01    1.34846e-01    2.45677e-01
    3.70000e+01    0.00000e+00    0.00000e+00    0.00000e+00    5.15235e+00    2.28976e+00    5.72402e-01    5.72533e-01    5.72538e-01    5.72533e-01    1.43070e-01    1.43221e-01    1.43070e-01    1.43221e-01    2.91119e+00    9.82710e-01    7.27796e-01    5.39382e-01    7.27796e-01    2.45677e-01    1.34846e-01    1.34846e-01    2.45677e-01
    3.80000e+01    0.00000e+00    0.00000e+00    0.00000e+00    5.15236e+00    2.28976e+00    5.72470e-01    5.72604e-01    5.72321e-01    5.72604e-01    1.43114e-01    1.43188e-01    1.43114e-01    1.43188e-01    2.91119e+00    9.82710e-01    7.27796e-01    5.39382e-01    7.27796e-01    2.45677e-01    1.34846e-01    1.34846e-01    2.45677e-01
    3.90000e+01    0.00000e+00    0.00000e+00    0.00000e+00    5.15169e+00    2.28946e+00    5.72417e-01    5.72413e-01    5.72417e-01    5.72413e-01    1.43091e-01    1.43194e-01    1.43091e-01    1.43194e-01    2.91119e+00    9.82710e-01    7.27796e-01    5.39382e-01    7.27796e-01    2.45677e-01    1.34846e-01    1.34846e-01    2.45677e-01
    0.00000e+00    1.00000e+00    0.00000e+00    0.00000e+00    5.14195e+00    2.28551e+00    5.71184e-01    5.71517e-01    5.71184e-01    5.71337e-01    1.42763e-01    1.42845e-01    1.42763e-01    1.42845e-01    2.91119e+00    9.82710e-01    7.27796e-01    5.39382e-01    7.27796e-01    2.45677e-01    1.34846e-01    1.34846e-01    2.45677e-01
    1.00000e+00    1.00000e+00    1.46035e-04    1.45005e-04    5.14201e+00    2.28554e+00    5.71533e-01    5.71526e-01    5.71065e-01    5.71058e-01    1.42960e-01    1.42825e-01    1.42680e-01    1.42828e-01    2.91119e+00    9.82710e-01    7.27796e-01    5.39382e-01    7.27796e-01    2.45677e-01    1.34846e-01    1.34846e-01    2.45677e-01
    2.00000e+00    1.00000e+00    1.72260e-04    1.41152e-04    5.14203e+00    2.28554e+00    5.71724e-01    5.71464e-01    5.71110e-01    5.70994e-01    1.42919e-01    1.42808e-01    1.42655e-01    1.42815e-01    2.91119e+00    9.82710e-01    7.27796e-01    5.39382e-01    7.27796e-01    2.45677e-01    1.34846e-01    1.34846e-01    2.45677e-01
    3.00000e+00    1.00000e+00    1.50142e-04    1.70970e-04    5.14208e+00    2.28556e+00    5.71663e-01    5.71544e-01    5.71139e-01    5.70948e-01    1.42921e-01    1.42834e-01    1.42656e-01    1.42817e-01    2.91119e+00    9.82710e-01    7.27796e-01    5.39382e-01    7.27796e-01    2.45677e-01    1.34846e-01    1.34846e-01    2.45677e-01
    4.00000e+00    1.00000e+00    1.15747e-04    1.70183e-04    5.14220e+00    2.28561e+00    5.71659e-01    5.71502e-01    5.71253e-01    5.70920e-01    1.42932e-01    1.42844e-01    1.42691e-01    1.42792e-01    2.91119e+00    9.82710e-01    7.27796e-01    5.39382e-01    7.27796e-01    2.45677e-01    1.34846e-01    1.34846e-01    2.45677e-01
    5.00000e+00    1.00000e+00    5.31924e-05    1.72471e-04    5.14241e+00    2.28569e+00    5.71585e-01    5.71535e-01    5.71392e-01    5.70933e-01    1.42915e-01    1.42864e-01    1.42732e-01    1.42762e-01    2.91119e+00    9.82710e-01    7.27796e-01    5.39382e-01    7.27796e-01    2.45677e-01    1.34846e-01    1.34846e-01    2.45677e-01
    6.00000e+00    1.00000e+00   -2.66156e-05    1.77063e-04    5.14265e+00    2.28579e+00    5.71495e-01    5.71545e-01    5.71574e-01    5.70928e-01    1.42918e-01    1.42886e-01    1.42800e-01    1.42711e-01    2.91119e+00    9.82710e-01    7.27796e-01    5.39382e-01    7.27796e-01    2.45677e-01    1.34846e-01    1.34846e-01    2.45677e-01
    7.00000e+00    1.00000e+00   -1.22662e-04    1.74531e-04    5.14293e+00    2.28591e+00    5.71370e-01    5.71573e-01    5.71776e-01    5.70962e-01    1.42904e-01    1.42911e-01    1.42873e-01    1.42655e-01    2.91119e+00    9.82710e-01    7.27796e-01    5.39382e-01    7.27796e-01    2.45677e-01    1.34846e-01    1.34846e-01    2.45677e-01
    8.00000e+00    1.00000e+00   -2.26130e-04    1.68973e-04    5.14325e+00    2.28604e+00    5.71231e-01    5.71598e-01    5.71992e-01    5.71005e-01    1.42894e-01    1.42938e-01    1.42957e-01    1.42599e-01    2.91119e+00    9.82710e-01    7.27796e-01    5.39382e-01    7.27796e-01    2.45677e-01    1.34846e-01    1.34846e-01    2.45677e-01
    9.00000e+00    1.00000e+00   -3.34019e-04    1.60980e-04    5.14361e+00    2.28619e+00    5.71087e-01    5.71628e-01    5.72217e-01    5.71061e-01    1.42882e-01    1.42966e-01    1.43045e-01    1.42541e-01    2.91119e+00    9.82710e-01    7.27796e-01    5.39382e-01    7.27796e-01    2.45677e-01    1.34846e-01    1.34846e-01    2.45677e-01
    1.00000e+01    1.00000e+00   -4.44354e-04    1.51970e-04    5.14400e+00    2.28634e+00    5.70939e-01    5.71659e-01    5.72447e-01    5.71123e-01    1.42871e-01    1.42994e-01    1.43138e-01    1.42482e-01    2.91119e+00    9.82710e-01    7.27796e-01    5.39382e-01    7.27796e-01    2.45677e-01    1.34846e-01    1.34846e-01    2.45677e-01
    1.10000e+01    1.00000e+00   -5.54584e-04    1.40688e-04    5.14440e+00    2.28651e+00    5.70790e-01    5.71693e-01    5.72676e-01    5.71195e-01    1.42859e-01    1.43022e-01    1.43230e-01    1.42426e-01    2.91119e+00    9.82710e-01    7.27796e-01    5.39382e-01    7.27796e-01    2.45677e-01    1.34846e-01    1.34846e-01    2.45677e-01
    1.20000e+01    1.00000e+00   -6.62164e-04    1.27571e-04    5.14482e+00    2.28668e+00    5.70646e-01    5.71727e-01    5.72900e-01    5.71274e-01    1.42847e-01    1.43050e-01    1.43322e-01    1.42371e-01    2.91119e+00    9.82710e-01    7.27796e-01    5.39382e-01    7.27796e-01    2.45677e-01    1.34846e-01    1.34846e-01    2.45677e-01
    1.30000e+01    1.00000e+00   -7.64636e-04    1.12588e-04    5.14525e+00    2.28686e+00    5.70508e-01    5.71762e-01    5.73113e-01    5.71361e-01    1.42836e-01    1.43077e-01    1.43412e-01    1.42323e-01    2.91119e+00    9.82710e-01    7.27796e-01    5.39382e-01    7.27796e-01    2.45677e-01    1.34846e-01    1.34846e-01    2.45677e-01
    1.40000e+01    1.00000e+00   -8.58960e-04    9.60727e-05    5.14568e+00    2.28703e+00    5.70382e-01    5.71797e-01    5.73310e-01    5.71453e-01    1.42827e-01    1.43101e-01    1.43498e-01    1.42280e-01    2.91119e+00    9.82710e-01    7.27796e-01    5.39382e-01    7.27796e-01    2.45677e-01    1.34846e-01    1.34846e-01    2.45677e-01
    1.50000e+01    1.00000e+00   -9.41841e-04    7.68142e-05    5.14611e+00    2.28721e+00    5.70271e-01    5.71832e-01    5.73484e-01    5.71556e-01    1.42818e-01    1.43123e-01    1.43575e-01    1.42246e-01    2.91119e+00    9.82710e-01    7.27796e-01    5.39382e-01    7.27796e-01    2.45677e-01    1.34846e-01    1.34846e-01    2.45677e-01
    1.60000e+01    1.00000e+00   -1.00967e-03    5.55135e-05    5.14654e+00    2.28738e+00    5.70183e-01    5.71866e-01    5.73628e-01    5.71665e-01    1.42811e-01    1.43141e-01    1.43644e-01    1.42223e-01    2.91119e+00    9.82710e-01    7.27796e-01    5.39382e-01    7.27796e-01    2.45677e-01    1.34846e-01    1.34846e-01    2.45677e-01
    1.70000e+01    1.00000e+00   -1.05862e-03    3.24666e-05    5.14697e+00    2.28756e+00    5.70122e-01    5.71899e-01    5.73735e-01    5.71780e-01    1.42808e-01    1.43155e-01    1.43702e-01    1.42214e-01    2.91119e+00    9.82710e-01    7.27796e-01    5.39382e-01    7.27796e-01    2.45677e-01    1.34846e-01    1.34846e-01    2.45677e-01
    1.80000e+01    1.00000e+00   -1.08511e-03    7.32035e-06    5.14739e+00    2.28773e+00    5.70097e-01    5.71932e-01    5.73800e-01    5.71902e-01    1.42807e-01    1.43164e-01    1.43744e-01    1.42219e-01    2.91119e+00    9.82710e-01    7.27796e-01    5.39382e-01    7.27796e-01    2.45677e-01    1.34846e-01    1.34846e-01    2.45677e-01
    1.90000e+01    1.00000e+00   -1.08600e-03   -1.97779e-05    5.14780e+00    2.28789e+00    5.70110e-01    5.71963e-01    5.73817e-01    5.72030e-01    1.42811e-01    1.43167e-01    1.43770e-01    1.42243e-01    2.91119e+00    9.82710e-01    7.27796e-01    5.39382e-01    7.27796e-01    2.45677e-01    1.34846e-01    1.34846e-01    2.45677e-01
    2.00000e+01    1.00000e+00   -1.05876e-03   -4.70793e-05    5.14820e+00    2.28805e+00    5.70169e-01    5.71993e-01    5.73782e-01    5.72158e-01    1.42819e-01    1.43165e-01    1.43777e-01    1.42285e-01    2.91119e+00    9.82710e-01    7.27796e-01    5.39382e-01    7.27796e-01    2.45677e-01    1.34846e-01    1.34846e-01    2.45677e-01
    2.10000e+01    1.00000e+00   -1.00215e-03   -7.45816e-05    5.14859e+00    2.28821e+00    5.70277e-01    5.72023e-01    5.73695e-01    5.72286e-01    1.42833e-01    1.43156e-01    1.43764e-01    1.42346e-01    2.91119e+00    9.82710e-01    7.27796e-01    5.39382e-01    7.27796e-01    2.45677e-01    1.34846e-01    1.34846e-01    2.45677e-01
    2.20000e+01    1.00000e+00   -9.16386e-04   -1.01880e-04    5.14896e+00    2.28836e+00    5.70433e-01    5.72050e-01    5.73558e-01    5.72411e-01    1.42852e-01    1.43141e-01    1.43731e-01    1.42426e-01    2.91119e+00    9.82710e-01    7.27796e-01    5.39382e-01    7.27796e-01    2.45677e-01    1.34846e-01    1.34846e-01    2.45677e-01
    2.30000e+01    1.00000e+00   -8.03126e-04   -1.26859e-04    5.14932e+00    2.28850e+00    5.70638e-01    5.72077e-01    5.73373e-01    5.72527e-01    1.42876e-01    1.43121e-01    1.43678e-01    1.42523e-01    2.91119e+00    9.82710e-01    7.27796e-01    5.39382e-01    7.27796e-01    2.45677e-01    1.34846e-01    1.34846e-01    2.45677e-01
    2.40000e+01    1.00000e+00   -6.65906e-04   -1.48607e-04    5.14965e+00    2.28864e+00    5.70886e-01    5.72102e-01    5.73151e-01    5.72630e-01    1.42907e-01    1.43098e-01    1.43607e-01    1.42634e-01    2.91119e+00    9.82710e-01    7.27796e-01    5.39382e-01    7.27796e-01    2.45677e-01    1.34846e-01    1.34846e-01    2.45677e-01
    2.50000e+01    1.00000e+00   -5.10069e-04   -1.67135e-04    5.14997e+00    2.28877e+00    5.71170e-01    5.72126e-01    5.72900e-01    5.72721e-01    1.42940e-01    1.43071e-01    1.43522e-01    1.42755e-01    2.91119e+00    9.82710e-01    7.27796e-01    5.39382e-01    7.27796e-01    2.45677e-01    1.34846e-01    1.34846e-01    2.45677e-01
    2.60000e+01    1.00000e+00   -3.42361e-04   -1.80782e-04    5.15027e+00    2.28889e+00    5.71481e-01    5.72149e-01    5.72635e-01    5.72792e-01    1.42977e-01    1.43043e-01    1.43426e-01    1.42882e-01    2.91119e+00    9.82710e-01    7.27796e-01    5.39382e-01    7.27796e-01    2.45677e-01    1.34846e-01    1.34846e-01    2.45677e-01
    2.70000e+01    1.00000e+00   -1.70759e-04   -1.88519e-04    5.15056e+00    2.28900e+00    5.71804e-01    5.72172e-01    5.72369e-01    5.72841e-01    1.43016e-01    1.43016e-01    1.43324e-01    1.43010e-01    2.91119e+00    9.82710e-01    7.27796e-01    5.39382e-01    7.27796e-01    2.45677e-01    1.34846e-01    1.34846e-01    2.45677e-01
    2.80000e+01    1.00000e+00   -3.93578e-06   -1.91335e-04    5.15082e+00    2.28911e+00    5.72125e-01    5.72192e-01    5.72118e-01    5.72870e-01    1.43055e-01    1.42991e-01    1.43223e-01    1.43132e-01    2.91119e+00    9.82710e-01    7.27796e-01    5.39382e-01    7.27796e-01    2.45677e-01    1.34846e-01    1.34846e-01    2.45677e-01
    2.90000e+01    1.00000e+00    1.49426e-04   -1.88404e-04    5.15106e+00    2.28921e+00    5.72430e-01    5.72214e-01    5.71898e-01    5.72879e-01    1.43092e-01    1.42970e-01    1.43126e-01    1.43241e-01    2.91119e+00    9.82710e-01    7.27796e-01    5.39382e-01    7.27796e-01    2.45677e-01    1.34846e-01    1.34846e-01    2.45677e-01
    3.00000e+01    1.00000e+00    2.80740e-04   -1.80248e-04    5.15128e+00    2.28930e+00    5.72703e-01    5.72232e-01    5.71721e-01    5.72866e-01    1.43126e-01    1.42956e-01    1.43041e-01    1.43335e-01    2.91119e+00    9.82710e-01    7.27796e-01    5.39382e-01    7.27796e-01    2.45677e-01    1.34846e-01    1.34846e-01    2.45677e-01
    3.10000e+01    1.00000e+00    3.82640e-04   -1.67438e-04    5.15149e+00    2.28939e+00    5.72930e-01    5.72252e-01    5.71600e-01    5.72837e-01    1.43153e-01    1.42949e-01    1.42972e-01    1.43408e-01    2.91119e+00    9.82710e-01    7.27796e-01    5.39382e-01    7.27796e-01    2.45677e-01    1.34846e-01    1.34846e-01    2.45677e-01
    3.20000e+01    1.00000e+00    4.50462e-04   -1.53015e-04    5.15167e+00    2.28946e+00    5.73100e-01    5.72266e-01    5.71537e-01    5.72797e-01    1.43176e-01    1.42949e-01    1.42926e-01    1.43456e-01    2.91119e+00    9.82710e-01    7.27796e-01    5.39382e-01    7.27796e-01    2.45677e-01    1.34846e-01    1.34846e-01    2.45677e-01
    3.30000e+01    1.00000e+00    4.80965e-04   -1.34355e-04    5.15184e+00    2.28954e+00    5.73206e-01    5.72290e-01    5.71542e-01    5.72751e-01    1.43187e-01    1.42954e-01    1.42896e-01    1.43476e-01    2.91119e+00    9.82710e-01    7.27796e-01    5.39382e-01    7.27796e-01    2.45677e-01    1.34846e-01    1.34846e-01    2.45677e-01
    3.40000e+01    1.00000e+00    4.68886e-04   -1.14099e-04    5.15198e+00    2.28960e+00    5.73245e-01    5.72294e-01    5.71622e-01    5.72683e-01    1.43193e-01    1.42978e-01    1.42896e-01    1.43474e-01    2.91119e+00    9.82710e-01    7.27796e-01    5.39382e-01    7.27796e-01    2.45677e-01    1.34846e-01    1.34846e-01    2.45677e-01
    3.50000e+01    1.00000e+00    4.20741e-04   -9.85372e-05    5.15213e+00    2.28966e+00    5.73201e-01    5.72327e-01    5.71748e-01    5.72649e-01    1.43188e-01    1.42990e-01    1.42923e-01    1.43440e-01    2.91119e+00    9.82710e-01    7.27796e-01    5.39382e-01    7.27796e-01    2.45677e-01    1.34846e-01    1.34846e-01    2.45677e-01
    3.60000e+01    1.00000e+00    3.39801e-04   -9.98527e-05    5.15222e+00    2.28970e+00    5.73110e-01    5.72286e-01    5.71933e-01    5.72622e-01    1.43177e-01    1.43019e-01    1.42979e-01    1.43394e-01    2.91119e+00    9.82710e-01    7.27796e-01    5.39382e-01    7.27796e-01    2.45677e-01    1.34846e-01    1.34846e-01    2.45677e-01
    3.70000e+01    1.00000e+00    2.55347e-04   -7.61310e-05    5.15228e+00    2.28972e+00    5.72945e-01    5.72363e-01    5.72049e-01    5.72601e-01    1.43174e-01    1.43046e-01    1.43041e-01    1.43333e-01    2.91119e+00    9.82710e-01    7.27796e-01    5.39382e-01    7.27796e-01    2.45677e-01    1.34846e-01    1.34846e-01    2.45677e-01
    3.80000e+01    1.00000e+00    1.56427e-04   -1.03449e-04    5.15232e+00    2.28974e+00    5.72821e-01    5.72309e-01    5.72303e-01    5.72631e-01    1.43142e-01    1.43007e-01    1.43105e-01    1.43257e-01    2.91119e+00    9.82710e-01    7.27796e-01    5.39382e-01    7.27796e-01    2.45677e-01    1.34846e-01    1.34846e-01    2.45677e-01
    3.90000e+01    1.00000e+00    0.00000e+00    0.00000e+00    5.15239e+00    2.28977e+00    5.72617e-01    5.72324e-01    5.72617e-01    5.72481e-01    1.43108e-01    1.43180e-01    1.43108e-01    1.43180e-01    2.91119e+00    9.82710e-01    7.27796e-01    5.39382e-01    7.27796e-01    2.45677e-01    1.34846e-01    1.34846e-01    2.45677e-01
    0.00000e+00    2.00000e+00    0.00000e+00    0.00000e+00    5.14190e+00    2.28549e+00    5.71256e-01    5.71266e-01    5.71256e-01    5.71415e-01    1.42751e-01    1.42862e-01    1.42751e-01    1.42862e-01    2.91119e+00    9.82710e-01    7.27796e-01    5.39382e-01    7.27796e-01    2.45677e-01    1.34846e-01    1.34846e-01    2.45677e-01
    1.00000e+00    2.00000e+00    1.12177e-04    2.05251e-04    5.14202e+00    2.28554e+00    5.71465e-01    5.71723e-01    5.71105e-01    5.70994e-01    1.42911e-01    1.42851e-01    1.42639e-01    1.42796e-01    2.91119e+00    9.82710e-01    7.27796e-01    5.39382e-01    7.27796e-01    2.45677e-01    1.34846e-01    1.34846e-01    2.45677e-01
    2.00000e+00    2.00000e+00    1.53221e-04    2.98480e-04    5.14204e+00    2.28554e+00    5.71673e-01    5.71760e-01    5.71133e-01    5.70717e-01    1.42983e-01    1.42870e-01    1.42613e-01    1.42748e-01    2.91119e+00    9.82710e-01    7.27796e-01    5.39382e-01    7.27796e-01    2.45677e-01    1.34846e-01    1.34846e-01    2.45677e-01
    3.00000e+00    2.00000e+00    1.08560e-04    3.54138e-04    5.14210e+00    2.28557e+00    5.71642e-01    5.71794e-01    5.71278e-01    5.70574e-01    1.43034e-01    1.42891e-01    1.42637e-01    1.42687e-01    2.91119e+00    9.82710e-01    7.27796e-01    5.39382e-01    7.27796e-01    2.45677e-01    1.34846e-01    1.34846e-01    2.45677e-01
    4.00000e+00    2.00000e+00    1.15789e-05    3.99311e-04    5.14228e+00    2.28564e+00    5.71548e-01    5.71847e-01    5.71504e-01    5.70475e-01    1.43042e-01    1.42932e-01    1.42694e-01    1.42600e-01    2.91119e+00    9.82710e-01    7.27796e-01    5.39382e-01    7.27796e-01    2.45677e-01    1.34846e-01    1.34846e-01    2.45677e-01
    5.00000e+00    2.00000e+00   -1.34657e-04    4.22815e-04    5.14245e+00    2.28571e+00    5.71364e-01    5.71866e-01    5.71818e-01    5.70407e-01    1.43014e-01    1.42989e-01    1.42776e-01    1.42512e-01    2.91119e+00    9.82710e-01    7.27796e-01    5.39382e-01    7.27796e-01    2.45677e-01    1.34846e-01    1.34846e-01    2.45677e-01