TITLE="LBM output"
VARIABLES = "X", "Y", "U","V","density","f0","f1","f2","f3","f4","f5","f6","f7","f8","feq0","feq1","feq2","feq3","feq4","feq5","feq6","feq7","feq8",
ZONE T = "fluid", I=40, J=40, F=POINT
SOLUTIONTIME=1035
    0.00000e+00    0.00000e+00    0.00000e+00    0.00000e+00    5.11625e+00    2.27363e+00    5.68485e-01    5.68481e-01    5.68485e-01    5.68481e-01    1.42246e-01    1.42102e-01    1.42246e-01    1.42102e-01    2.90081e+00    9.79206e-01    7.25202e-01    5.37459e-01    7.25202e-01    2.44802e-01    1.34365e-01    1.34365e-01    2.44802e-01
    1.00000e+00    0.00000e+00    0.00000e+00    0.00000e+00    5.11731e+00    2.27410e+00    5.68346e-01    5.68757e-01    5.68574e-01    5.68757e-01    1.42253e-01    1.42135e-01    1.42253e-01    1.42135e-01    2.90081e+00    9.79206e-01    7.25202e-01    5.37459e-01    7.25202e-01    2.44802e-01    1.34365e-01    1.34365e-01    2.44802e-01
    2.00000e+00    0.00000e+00    0.00000e+00    0.00000e+00    5.11745e+00    2.27417e+00    5.68664e-01    5.68680e-01    5.68497e-01    5.68680e-01    1.42301e-01    1.42077e-01    1.42301e-01    1.42077e-01    2.90081e+00    9.79206e-01    7.25202e-01    5.37459e-01    7.25202e-01    2.44802e-01    1.34365e-01    1.34365e-01    2.44802e-01
    3.00000e+00    0.00000e+00    0.00000e+00    0.00000e+00    5.11726e+00    2.27410e+00    5.68451e-01    5.68727e-01    5.68556e-01    5.68727e-01    1.42354e-01    1.41997e-01    1.42354e-01    1.41997e-01    2.90081e+00    9.79206e-01    7.25202e-01    5.37459e-01    7.25202e-01    2.44802e-01    1.34365e-01    1.34365e-01    2.44802e-01
    4.00000e+00    0.00000e+00    0.00000e+00    0.00000e+00    5.11749e+00    2.27421e+00    5.68582e-01    5.68696e-01    5.68543e-01    5.68696e-01    1.42412e-01    1.41968e-01    1.42412e-01    1.41968e-01    2.90081e+00    9.79206e-01    7.25202e-01    5.37459e-01    7.25202e-01    2.44802e-01    1.34365e-01    1.34365e-01    2.44802e-01
    5.00000e+00    0.00000e+00    0.00000e+00    0.00000e+00    5.11746e+00    2.27421e+00    5.68534e-01    5.68696e-01    5.68563e-01    5.68696e-01    1.42480e-01    1.41897e-01    1.42480e-01    1.41897e-01    2.90081e+00    9.79206e-01    7.25202e-01    5.37459e-01    7.25202e-01    2.44802e-01    1.34365e-01    1.34365e-01    2.44802e-01
    6.00000e+00    0.00000e+00    0.00000e+00    0.00000e+00    5.11758e+00    2.27429e+00    5.68571e-01    5.68697e-01    5.68578e-01    5.68697e-01    1.42546e-01    1.41831e-01    1.42546e-01    1.41831e-01    2.90081e+00    9.79206e-01    7.25202e-01    5.37459e-01    7.25202e-01    2.44802e-01    1.34365e-01    1.34365e-01    2.44802e-01
    7.00000e+00    0.00000e+00    0.00000e+00    0.00000e+00    5.11770e+00    2.27436e+00    5.68577e-01    5.68706e-01    5.68600e-01    5.68706e-01    1.42610e-01    1.41768e-01    1.42610e-01    1.41768e-01    2.90081e+00    9.79206e-01    7.25202e-01    5.37459e-01    7.25202e-01    2.44802e-01    1.34365e-01    1.34365e-01    2.44802e-01
    8.00000e+00    0.00000e+00    0.00000e+00    0.00000e+00    5.11787e+00    2.27445e+00    5.68604e-01    5.68714e-01    5.68625e-01    5.68714e-01    1.42673e-01    1.41706e-01    1.42673e-01    1.41706e-01    2.90081e+00    9.79206e-01    7.25202e-01    5.37459e-01    7.25202e-01    2.44802e-01    1.34365e-01    1.34365e-01    2.44802e-01
    9.00000e+00    0.00000e+00    0.00000e+00    0.00000e+00    5.11807e+00    2.27456e+00    5.68624e-01    5.68729e-01    5.68655e-01    5.68729e-01    1.42733e-01    1.41652e-01    1.42733e-01    1.41652e-01    2.90081e+00    9.79206e-01    7.25202e-01    5.37459e-01    7.25202e-01    2.44802e-01    1.34365e-01    1.34365e-01    2.44802e-01
    1.00000e+01    0.00000e+00    0.00000e+00    0.00000e+00    5.11831e+00    2.27469e+00    5.68656e-01    5.68749e-01    5.68689e-01    5.68749e-01    1.42790e-01    1.41602e-01    1.42790e-01    1.41602e-01    2.90081e+00    9.79206e-01    7.25202e-01    5.37459e-01    7.25202e-01    2.44802e-01    1.34365e-01    1.34365e-01    2.44802e-01
    1.10000e+01    0.00000e+00    0.00000e+00    0.00000e+00    5.11860e+00    2.27483e+00    5.68688e-01    5.68774e-01    5.68728e-01    5.68774e-01    1.42844e-01    1.41559e-01    1.42844e-01    1.41559e-01    2.90081e+00    9.79206e-01    7.25202e-01    5.37459e-01    7.25202e-01    2.44802e-01    1.34365e-01    1.34365e-01    2.44802e-01
    1.20000e+01    0.00000e+00    0.00000e+00    0.00000e+00    5.11894e+00    2.27500e+00    5.68727e-01    5.68804e-01    5.68772e-01    5.68804e-01    1.42894e-01    1.41522e-01    1.42894e-01    1.41522e-01    2.90081e+00    9.79206e-01    7.25202e-01    5.37459e-01    7.25202e-01    2.44802e-01    1.34365e-01    1.34365e-01    2.44802e-01
    1.30000e+01    0.00000e+00    0.00000e+00    0.00000e+00    5.11932e+00    2.27518e+00    5.68769e-01    5.68841e-01    5.68820e-01    5.68841e-01    1.42939e-01    1.41493e-01    1.42939e-01    1.41493e-01    2.90081e+00    9.79206e-01    7.25202e-01    5.37459e-01    7.25202e-01    2.44802e-01    1.34365e-01    1.34365e-01    2.44802e-01
    1.40000e+01    0.00000e+00    0.00000e+00    0.00000e+00    5.11974e+00    2.27538e+00    5.68817e-01    5.68883e-01    5.68873e-01    5.68883e-01    1.42982e-01    1.41469e-01    1.42982e-01    1.41469e-01    2.90081e+00    9.79206e-01    7.25202e-01    5.37459e-01    7.25202e-01    2.44802e-01    1.34365e-01    1.34365e-01    2.44802e-01
    1.50000e+01    0.00000e+00    0.00000e+00    0.00000e+00    5.12020e+00    2.27559e+00    5.68868e-01    5.68931e-01    5.68928e-01    5.68931e-01    1.43020e-01    1.41453e-01    1.43020e-01    1.41453e-01    2.90081e+00    9.79206e-01    7.25202e-01    5.37459e-01    7.25202e-01    2.44802e-01    1.34365e-01    1.34365e-01    2.44802e-01
    1.60000e+01    0.00000e+00    0.00000e+00    0.00000e+00    5.12069e+00    2.27582e+00    5.68923e-01    5.68983e-01    5.68987e-01    5.68983e-01    1.43052e-01    1.41445e-01    1.43052e-01    1.41445e-01    2.90081e+00    9.79206e-01    7.25202e-01    5.37459e-01    7.25202e-01    2.44802e-01    1.34365e-01    1.34365e-01    2.44802e-01
    1.70000e+01    0.00000e+00    0.00000e+00    0.00000e+00    5.12121e+00    2.27606e+00    5.68981e-01    5.69040e-01    5.69048e-01    5.69040e-01    1.43079e-01    1.41444e-01    1.43079e-01    1.41444e-01    2.90081e+00    9.79206e-01    7.25202e-01    5.37459e-01    7.25202e-01    2.44802e-01    1.34365e-01    1.34365e-01    2.44802e-01
    1.80000e+01    0.00000e+00    0.00000e+00    0.00000e+00    5.12175e+00    2.27630e+00    5.69042e-01    5.69099e-01    5.69111e-01    5.69099e-01    1.43099e-01    1.41451e-01    1.43099e-01    1.41451e-01    2.90081e+00    9.79206e-01    7.25202e-01    5.37459e-01    7.25202e-01    2.44802e-01    1.34365e-01    1.34365e-01    2.44802e-01
    1.90000e+01    0.00000e+00    0.00000e+00    0.00000e+00    5.12230e+00    2.27655e+00    5.69103e-01    5.69160e-01    5.69174e-01    5.69160e-01    1.43111e-01    1.41466e-01    1.43111e-01    1.41466e-01    2.90081e+00    9.79206e-01    7.25202e-01    5.37459e-01    7.25202e-01    2.44802e-01    1.34365e-01    1.34365e-01    2.44802e-01
    2.00000e+01    0.00000e+00    0.00000e+00    0.00000e+00    5.12286e+00    2.27680e+00    5.69166e-01    5.69222e-01    5.69236e-01    5.69222e-01    1.43113e-01    1.41491e-01    1.43113e-01    1.41491e-01    2.90081e+00    9.79206e-01    7.25202e-01    5.37459e-01    7.25202e-01    2.44802e-01    1.34365e-01    1.34365e-01    2.44802e-01
    2.10000e+01    0.00000e+00    0.00000e+00    0.00000e+00    5.12341e+00    2.27705e+00    5.69229e-01    5.69284e-01    5.69296e-01    5.69284e-01    1.43108e-01    1.41524e-01    1.43108e-01    1.41524e-01    2.90081e+00    9.79206e-01    7.25202e-01    5.37459e-01    7.25202e-01    2.44802e-01    1.34365e-01    1.34365e-01    2.44802e-01
    2.20000e+01    0.00000e+00    0.00000e+00    0.00000e+00    5.12394e+00    2.27729e+00    5.69289e-01    5.69345e-01    5.69354e-01    5.69345e-01    1.43091e-01    1.41567e-01    1.43091e-01    1.41567e-01    2.90081e+00    9.79206e-01    7.25202e-01    5.37459e-01    7.25202e-01    2.44802e-01    1.34365e-01    1.34365e-01    2.44802e-01
    2.30000e+01    0.00000e+00    0.00000e+00    0.00000e+00    5.12444e+00    2.27751e+00    5.69347e-01    5.69402e-01    5.69408e-01    5.69402e-01    1.43064e-01    1.41618e-01    1.43064e-01    1.41618e-01    2.90081e+00    9.79206e-01    7.25202e-01    5.37459e-01    7.25202e-01    2.44802e-01    1.34365e-01    1.34365e-01    2.44802e-01
    2.40000e+01    0.00000e+00    0.00000e+00    0.00000e+00    5.12490e+00    2.27772e+00    5.69402e-01    5.69455e-01    5.69457e-01    5.69455e-01    1.43028e-01    1.41677e-01    1.43028e-01    1.41677e-01    2.90081e+00    9.79206e-01    7.25202e-01    5.37459e-01    7.25202e-01    2.44802e-01    1.34365e-01    1.34365e-01    2.44802e-01
    2.50000e+01    0.00000e+00    0.00000e+00    0.00000e+00    5.12531e+00    2.27790e+00    5.69451e-01    5.69504e-01    5.69500e-01    5.69504e-01    1.42982e-01    1.41743e-01    1.42982e-01    1.41743e-01    2.90081e+00    9.79206e-01    7.25202e-01    5.37459e-01    7.25202e-01    2.44802e-01    1.34365e-01    1.34365e-01    2.44802e-01
    2.60000e+01    0.00000e+00    0.00000e+00    0.00000e+00    5.12567e+00    2.27807e+00    5.69495e-01    5.69546e-01    5.69537e-01    5.69546e-01    1.42928e-01    1.41815e-01    1.42928e-01    1.41815e-01    2.90081e+00    9.79206e-01    7.25202e-01    5.37459e-01    7.25202e-01    2.44802e-01    1.34365e-01    1.34365e-01    2.44802e-01
    2.70000e+01    0.00000e+00    0.00000e+00    0.00000e+00    5.12598e+00    2.27820e+00    5.69532e-01    5.69581e-01    5.69566e-01    5.69581e-01    1.42868e-01    1.41891e-01    1.42868e-01    1.41891e-01    2.90081e+00    9.79206e-01    7.25202e-01    5.37459e-01    7.25202e-01    2.44802e-01    1.34365e-01    1.34365e-01    2.44802e-01
    2.80000e+01    0.00000e+00    0.00000e+00    0.00000e+00    5.12622e+00    2.27831e+00    5.69563e-01    5.69609e-01    5.69589e-01    5.69609e-01    1.42804e-01    1.41968e-01    1.42804e-01    1.41968e-01    2.90081e+00    9.79206e-01    7.25202e-01    5.37459e-01    7.25202e-01    2.44802e-01    1.34365e-01    1.34365e-01    2.44802e-01
    2.90000e+01    0.00000e+00    0.00000e+00    0.00000e+00    5.12640e+00    2.27838e+00    5.69586e-01    5.69630e-01    5.69603e-01    5.69630e-01    1.42738e-01    1.42045e-01    1.42738e-01    1.42045e-01    2.90081e+00    9.79206e-01    7.25202e-01    5.37459e-01    7.25202e-01    2.44802e-01    1.34365e-01    1.34365e-01    2.44802e-01
    3.00000e+01    0.00000e+00    0.00000e+00    0.00000e+00    5.12651e+00    2.27843e+00    5.69602e-01    5.69643e-01    5.69613e-01    5.69643e-01    1.42672e-01    1.42119e-01    1.42672e-01    1.42119e-01    2.90081e+00    9.79206e-01    7.25202e-01    5.37459e-01    7.25202e-01    2.44802e-01    1.34365e-01    1.34365e-01    2.44802e-01
    3.10000e+01    0.00000e+00    0.00000e+00    0.00000e+00    5.12657e+00    2.27845e+00    5.69611e-01    5.69650e-01    5.69613e-01    5.69650e-01    1.42610e-01    1.42187e-01    1.42610e-01    1.42187e-01    2.90081e+00    9.79206e-01    7.25202e-01    5.37459e-01    7.25202e-01    2.44802e-01    1.34365e-01    1.34365e-01    2.44802e-01
    3.20000e+01    0.00000e+00    0.00000e+00    0.00000e+00    5.12659e+00    2.27845e+00    5.69614e-01    5.69650e-01    5.69614e-01    5.69650e-01    1.42553e-01    1.42249e-01    1.42553e-01    1.42249e-01    2.90081e+00    9.79206e-01    7.25202e-01    5.37459e-01    7.25202e-01    2.44802e-01    1.34365e-01    1.34365e-01    2.44802e-01
    3.30000e+01    0.00000e+00    0.00000e+00    0.00000e+00    5.12655e+00    2.27843e+00    5.69612e-01    5.69648e-01    5.69602e-01    5.69648e-01    1.42504e-01    1.42301e-01    1.42504e-01    1.42301e-01    2.90081e+00    9.79206e-01    7.25202e-01    5.37459e-01    7.25202e-01    2.44802e-01    1.34365e-01    1.34365e-01    2.44802e-01
    3.40000e+01    0.00000e+00    0.00000e+00    0.00000e+00    5.12649e+00    2.27840e+00    5.69605e-01    5.69638e-01    5.69599e-01    5.69638e-01    1.42461e-01    1.42344e-01    1.42461e-01    1.42344e-01    2.90081e+00    9.79206e-01    7.25202e-01    5.37459e-01    7.25202e-01    2.44802e-01    1.34365e-01    1.34365e-01    2.44802e-01
    3.50000e+01    0.00000e+00    0.00000e+00    0.00000e+00    5.12642e+00    2.27836e+00    5.69597e-01    5.69631e-01    5.69582e-01    5.69631e-01    1.42433e-01    1.42375e-01    1.42433e-01    1.42375e-01    2.90081e+00    9.79206e-01    7.25202e-01    5.37459e-01    7.25202e-01    2.44802e-01    1.34365e-01    1.34365e-01    2.44802e-01
    3.60000e+01    0.00000e+00    0.00000e+00    0.00000e+00    5.12629e+00    2.27830e+00    5.69586e-01    5.69617e-01    5.69567e-01    5.69617e-01    1.42404e-01    1.42397e-01    1.42404e-01    1.42397e-01    2.90081e+00    9.79206e-01    7.25202e-01    5.37459e-01    7.25202e-01    2.44802e-01    1.34365e-01    1.34365e-01    2.44802e-01
    3.70000e+01    0.00000e+00    0.00000e+00    0.00000e+00    5.12626e+00    2.27828e+00    5.69569e-01    5.69608e-01    5.69580e-01    5.69608e-01    1.42398e-01    1.42407e-01    1.42398e-01    1.42407e-01    2.90081e+00    9.79206e-01    7.25202e-01    5.37459e-01    7.25202e-01    2.44802e-01    1.34365e-01    1.34365e-01    2.44802e-01
    3.80000e+01    0.00000e+00    0.00000e+00    0.00000e+00    5.12612e+00    2.27822e+00    5.69571e-01    5.69603e-01    5.69519e-01    5.69603e-01    1.42387e-01    1.42416e-01    1.42387e-01    1.42416e-01    2.90081e+00    9.79206e-01    7.25202e-01    5.37459e-01    7.25202e-01    2.44802e-01    1.34365e-01    1.34365e-01    2.44802e-01
    3.90000e+01    0.00000e+00    0.00000e+00    0.00000e+00    5.12588e+00    2.27811e+00    5.69544e-01    5.69546e-01    5.69544e-01    5.69546e-01    1.42382e-01    1.42410e-01    1.42382e-01    1.42410e-01    2.90081e+00    9.79206e-01    7.25202e-01    5.37459e-01    7.25202e-01    2.44802e-01    1.34365e-01    1.34365e-01    2.44802e-01
    0.00000e+00    1.00000e+00    0.00000e+00    0.00000e+00    5.11734e+00    2.27411e+00    5.68767e-01    5.68350e-01    5.68767e-01    5.68588e-01    1.42249e-01    1.42129e-01    1.42249e-01    1.42129e-01    2.90081e+00    9.79206e-01    7.25202e-01    5.37459e-01    7.25202e-01    2.44802e-01    1.34365e-01    1.34365e-01    2.44802e-01
    1.00000e+00    1.00000e+00   -2.13140e-04   -1.54049e-04    5.11730e+00    2.27410e+00    5.68341e-01    5.68343e-01    5.69040e-01    5.68823e-01    1.41990e-01    1.42183e-01    1.42340e-01    1.42141e-01    2.90081e+00    9.79206e-01    7.25202e-01    5.37459e-01    7.25202e-01    2.44802e-01    1.34365e-01    1.34365e-01    2.44802e-01
    2.00000e+00    1.00000e+00   -3.59609e-04   -1.01032e-04    5.11736e+00    2.27413e+00    5.68021e-01    5.68433e-01    5.69282e-01    5.68738e-01    1.42034e-01    1.42237e-01    1.42430e-01    1.42054e-01    2.90081e+00    9.79206e-01    7.25202e-01    5.37459e-01    7.25202e-01    2.44802e-01    1.34365e-01    1.34365e-01    2.44802e-01
    3.00000e+00    1.00000e+00   -5.28199e-04   -9.25829e-05    5.11743e+00    2.27417e+00    5.67836e-01    5.68367e-01    5.69660e-01    5.68665e-01    1.42003e-01    1.42275e-01    1.42531e-01    1.41922e-01    2.90081e+00    9.79206e-01    7.25202e-01    5.37459e-01    7.25202e-01    2.44802e-01    1.34365e-01    1.34365e-01    2.44802e-01
    4.00000e+00    1.00000e+00   -7.43646e-04   -5.99028e-05    5.11749e+00    2.27421e+00    5.67485e-01    5.68440e-01    5.70040e-01    5.68605e-01    1.41953e-01    1.42332e-01    1.42649e-01    1.41778e-01    2.90081e+00    9.79206e-01    7.25202e-01    5.37459e-01    7.25202e-01    2.44802e-01    1.34365e-01    1.34365e-01    2.44802e-01
    5.00000e+00    1.00000e+00   -9.68409e-04   -4.12697e-05    5.11754e+00    2.27425e+00    5.67121e-01    5.68442e-01    5.70453e-01    5.68552e-01    1.41919e-01    1.42393e-01    1.42782e-01    1.41631e-01    2.90081e+00    9.79206e-01    7.25202e-01    5.37459e-01    7.25202e-01    2.44802e-01    1.34365e-01    1.34365e-01    2.44802e-01
    6.00000e+00    1.00000e+00   -1.19996e-03   -2.96496e-05    5.11764e+00    2.27431e+00    5.66740e-01    5.68473e-01    5.70862e-01    5.68540e-01    1.41865e-01    1.42450e-01    1.42917e-01    1.41484e-01    2.90081e+00    9.79206e-01    7.25202e-01    5.37459e-01    7.25202e-01    2.44802e-01    1.34365e-01    1.34365e-01    2.44802e-01
    7.00000e+00    1.00000e+00   -1.42707e-03   -1.85501e-05    5.11776e+00    2.27438e+00    5.66362e-01    5.68499e-01    5.71267e-01    5.68526e-01    1.41822e-01    1.42509e-01    1.43055e-01    1.41344e-01    2.90081e+00    9.79206e-01    7.25202e-01    5.37459e-01    7.25202e-01    2.44802e-01    1.34365e-01    1.34365e-01    2.44802e-01
    8.00000e+00    1.00000e+00   -1.64753e-03   -8.32797e-06    5.11792e+00    2.27447e+00    5.66002e-01    5.68533e-01    5.71660e-01    5.68526e-01    1.41779e-01    1.42563e-01    1.43191e-01    1.41201e-01    2.90081e+00    9.79206e-01    7.25202e-01    5.37459e-01    7.25202e-01    2.44802e-01    1.34365e-01    1.34365e-01    2.44802e-01
    9.00000e+00    1.00000e+00   -1.85758e-03   -1.01188e-06    5.11812e+00    2.27457e+00    5.65657e-01    5.68569e-01    5.72036e-01    5.68538e-01    1.41740e-01    1.42617e-01    1.43322e-01    1.41071e-01    2.90081e+00    9.79206e-01    7.25202e-01    5.37459e-01    7.25202e-01    2.44802e-01    1.34365e-01    1.34365e-01    2.44802e-01
    1.00000e+01    1.00000e+00   -2.05405e-03    5.48290e-06    5.11836e+00    2.27469e+00    5.65340e-01    5.68611e-01    5.72391e-01    5.68558e-01    1.41705e-01    1.42666e-01    1.43449e-01    1.40948e-01    2.90081e+00    9.79206e-01    7.25202e-01    5.37459e-01    7.25202e-01    2.44802e-01    1.34365e-01    1.34365e-01    2.44802e-01
    1.10000e+01    1.00000e+00   -2.23532e-03    9.90559e-06    5.11865e+00    2.27484e+00    5.65051e-01    5.68656e-01    5.72724e-01    5.68588e-01    1.41675e-01    1.42713e-01    1.43568e-01    1.40837e-01    2.90081e+00    9.79206e-01    7.25202e-01    5.37459e-01    7.25202e-01    2.44802e-01    1.34365e-01    1.34365e-01    2.44802e-01
    1.20000e+01    1.00000e+00   -2.40009e-03    1.25609e-05    5.11898e+00    2.27499e+00    5.64794e-01    5.68705e-01    5.73031e-01    5.68630e-01    1.41650e-01    1.42756e-01    1.43680e-01    1.40737e-01    2.90081e+00    9.79206e-01    7.25202e-01    5.37459e-01    7.25202e-01    2.44802e-01    1.34365e-01    1.34365e-01    2.44802e-01
    1.30000e+01    1.00000e+00   -2.54702e-03    1.31370e-05    5.11935e+00    2.27517e+00    5.64571e-01    5.68757e-01    5.73311e-01    5.68681e-01    1.41629e-01    1.42796e-01    1.43783e-01    1.40651e-01    2.90081e+00    9.79206e-01    7.25202e-01    5.37459e-01    7.25202e-01    2.44802e-01    1.34365e-01    1.34365e-01    2.44802e-01
    1.40000e+01    1.00000e+00   -2.67452e-03    1.19173e-05    5.11976e+00    2.27536e+00    5.64383e-01    5.68812e-01    5.73560e-01    5.68742e-01    1.41614e-01    1.42831e-01    1.43877e-01    1.40578e-01    2.90081e+00    9.79206e-01    7.25202e-01    5.37459e-01    7.25202e-01    2.44802e-01    1.34365e-01    1.34365e-01    2.44802e-01
    1.50000e+01    1.00000e+00   -2.78092e-03    7.79590e-06    5.12021e+00    2.27557e+00    5.64234e-01    5.68870e-01    5.73775e-01    5.68816e-01    1.41604e-01    1.42863e-01    1.43960e-01    1.40521e-01    2.90081e+00    9.79206e-01    7.25202e-01    5.37459e-01    7.25202e-01    2.44802e-01    1.34365e-01    1.34365e-01    2.44802e-01
    1.60000e+01    1.00000e+00   -2.86425e-03    1.32531e-06    5.12070e+00    2.27579e+00    5.64125e-01    5.68930e-01    5.73951e-01    5.68901e-01    1.41598e-01    1.42889e-01    1.44030e-01    1.40480e-01    2.90081e+00    9.79206e-01    7.25202e-01    5.37459e-01    7.25202e-01    2.44802e-01    1.34365e-01    1.34365e-01    2.44802e-01
    1.70000e+01    1.00000e+00   -2.92210e-03   -7.19319e-06    5.12121e+00    2.27603e+00    5.64059e-01    5.68992e-01    5.74083e-01    5.68995e-01    1.41599e-01    1.42911e-01    1.44087e-01    1.40458e-01    2.90081e+00    9.79206e-01    7.25202e-01    5.37459e-01    7.25202e-01    2.44802e-01    1.34365e-01    1.34365e-01    2.44802e-01
    1.80000e+01    1.00000e+00   -2.95204e-03   -1.83136e-05    5.12174e+00    2.27627e+00    5.64041e-01    5.69056e-01    5.74167e-01    5.69100e-01    1.41605e-01    1.42926e-01    1.44127e-01    1.40454e-01    2.90081e+00    9.79206e-01    7.25202e-01    5.37459e-01    7.25202e-01    2.44802e-01    1.34365e-01    1.34365e-01    2.44802e-01
    1.90000e+01    1.00000e+00   -2.95171e-03   -3.19769e-05    5.12229e+00    2.27651e+00    5.64073e-01    5.69118e-01    5.74198e-01    5.69214e-01    1.41617e-01    1.42934e-01    1.44148e-01    1.40471e-01    2.90081e+00    9.79206e-01    7.25202e-01    5.37459e-01    7.25202e-01    2.44802e-01    1.34365e-01    1.34365e-01    2.44802e-01
    2.00000e+01    1.00000e+00   -2.91887e-03   -4.67076e-05    5.12283e+00    2.27676e+00    5.64158e-01    5.69181e-01    5.74171e-01    5.69331e-01    1.41636e-01    1.42935e-01    1.44151e-01    1.40509e-01    2.90081e+00    9.79206e-01    7.25202e-01    5.37459e-01    7.25202e-01    2.44802e-01    1.34365e-01    1.34365e-01    2.44802e-01
    2.10000e+01    1.00000e+00   -2.85196e-03   -6.27689e-05    5.12337e+00    2.27700e+00    5.64299e-01    5.69242e-01    5.74082e-01    5.69452e-01    1.41662e-01    1.42928e-01    1.44132e-01    1.40569e-01    2.90081e+00    9.79206e-01    7.25202e-01    5.37459e-01    7.25202e-01    2.44802e-01    1.34365e-01    1.34365e-01    2.44802e-01
    2.20000e+01    1.00000e+00   -2.75038e-03   -8.00365e-05    5.12389e+00    2.27724e+00    5.64497e-01    5.69299e-01    5.73932e-01    5.69575e-01    1.41694e-01    1.42913e-01    1.44090e-01    1.40651e-01    2.90081e+00    9.79206e-01    7.25202e-01    5.37459e-01    7.25202e-01    2.44802e-01    1.34365e-01    1.34365e-01    2.44802e-01
    2.30000e+01    1.00000e+00   -2.61447e-03   -9.67449e-05    5.12438e+00    2.27746e+00    5.64752e-01    5.69354e-01    5.73720e-01    5.69693e-01    1.41733e-01    1.42889e-01    1.44026e-01    1.40753e-01    2.90081e+00    9.79206e-01    7.25202e-01    5.37459e-01    7.25202e-01    2.44802e-01    1.34365e-01    1.34365e-01    2.44802e-01
    2.40000e+01    1.00000e+00   -2.44603e-03   -1.12126e-04    5.12483e+00    2.27766e+00    5.65060e-01    5.69404e-01    5.73451e-01    5.69801e-01    1.41779e-01    1.42859e-01    1.43940e-01    1.40875e-01    2.90081e+00    9.79206e-01    7.25202e-01    5.37459e-01    7.25202e-01    2.44802e-01    1.34365e-01    1.34365e-01    2.44802e-01
    2.50000e+01    1.00000e+00   -2.24850e-03   -1.26506e-04    5.12524e+00    2.27785e+00    5.65416e-01    5.69449e-01    5.73130e-01    5.69900e-01    1.41830e-01    1.42820e-01    1.43834e-01    1.41013e-01    2.90081e+00    9.79206e-01    7.25202e-01    5.37459e-01    7.25202e-01    2.44802e-01    1.34365e-01    1.34365e-01    2.44802e-01
    2.60000e+01    1.00000e+00   -2.02666e-03   -1.38158e-04    5.12560e+00    2.27801e+00    5.65814e-01    5.69487e-01    5.72767e-01    5.69983e-01    1.41887e-01    1.42776e-01    1.43710e-01    1.41164e-01    2.90081e+00    9.79206e-01    7.25202e-01    5.37459e-01    7.25202e-01    2.44802e-01    1.34365e-01    1.34365e-01    2.44802e-01
    2.70000e+01    1.00000e+00   -1.78669e-03   -1.46262e-04    5.12590e+00    2.27814e+00    5.66243e-01    5.69520e-01    5.72372e-01    5.70047e-01    1.41947e-01    1.42727e-01    1.43573e-01    1.41324e-01    2.90081e+00    9.79206e-01    7.25202e-01    5.37459e-01    7.25202e-01    2.44802e-01    1.34365e-01    1.34365e-01    2.44802e-01
    2.80000e+01    1.00000e+00   -1.53603e-03   -1.50934e-04    5.12614e+00    2.27825e+00    5.66691e-01    5.69545e-01    5.71961e-01    5.70090e-01    1.42008e-01    1.42676e-01    1.43424e-01    1.41488e-01    2.90081e+00    9.79206e-01    7.25202e-01    5.37459e-01    7.25202e-01    2.44802e-01    1.34365e-01    1.34365e-01    2.44802e-01
    2.90000e+01    1.00000e+00   -1.28283e-03   -1.52130e-04    5.12632e+00    2.27833e+00    5.67145e-01    5.69563e-01    5.71547e-01    5.70114e-01    1.42070e-01    1.42624e-01    1.43272e-01    1.41651e-01    2.90081e+00    9.79206e-01    7.25202e-01    5.37459e-01    7.25202e-01    2.44802e-01    1.34365e-01    1.34365e-01    2.44802e-01
    3.00000e+01    1.00000e+00   -1.03546e-03   -1.48734e-04    5.12644e+00    2.27839e+00    5.67591e-01    5.69575e-01    5.71144e-01    5.70114e-01    1.42130e-01    1.42573e-01    1.43120e-01    1.41807e-01    2.90081e+00    9.79206e-01    7.25202e-01    5.37459e-01    7.25202e-01    2.44802e-01    1.34365e-01    1.34365e-01    2.44802e-01
    3.10000e+01    1.00000e+00   -8.02120e-04   -1.41945e-04    5.12651e+00    2.27842e+00    5.68015e-01    5.69580e-01    5.70767e-01    5.70094e-01    1.42188e-01    1.42525e-01    1.42974e-01    1.41952e-01    2.90081e+00    9.79206e-01    7.25202e-01    5.37459e-01    7.25202e-01    2.44802e-01    1.34365e-01    1.34365e-01    2.44802e-01
    3.20000e+01    1.00000e+00   -5.90488e-04   -1.31503e-04    5.12653e+00    2.27842e+00    5.68403e-01    5.69581e-01    5.70430e-01    5.70056e-01    1.42238e-01    1.42482e-01    1.42838e-01    1.42081e-01    2.90081e+00    9.79206e-01    7.25202e-01    5.37459e-01    7.25202e-01    2.44802e-01    1.34365e-01    1.34365e-01    2.44802e-01
    3.30000e+01    1.00000e+00   -4.07016e-04   -1.19111e-04    5.12651e+00    2.27841e+00    5.68744e-01    5.69575e-01    5.70140e-01    5.70004e-01    1.42284e-01    1.42446e-01    1.42719e-01    1.42191e-01    2.90081e+00    9.79206e-01    7.25202e-01    5.37459e-01    7.25202e-01    2.44802e-01    1.34365e-01    1.34365e-01    2.44802e-01
    3.40000e+01    1.00000e+00   -2.55921e-04   -1.03473e-04    5.12647e+00    2.27839e+00    5.69029e-01    5.69569e-01    5.69908e-01    5.69941e-01    1.42320e-01    1.42417e-01    1.42616e-01    1.42280e-01    2.90081e+00    9.79206e-01    7.25202e-01    5.37459e-01    7.25202e-01    2.44802e-01    1.34365e-01    1.34365e-01    2.44802e-01
    3.50000e+01    1.00000e+00   -1.39661e-04   -8.91789e-05    5.12640e+00    2.27835e+00    5.69254e-01    5.69558e-01    5.69733e-01    5.69876e-01    1.42350e-01    1.42393e-01    1.42538e-01    1.42345e-01    2.90081e+00    9.79206e-01    7.25202e-01    5.37459e-01    7.25202e-01    2.44802e-01    1.34365e-01    1.34365e-01    2.44802e-01
    3.60000e+01    1.00000e+00   -5.91340e-05   -7.33197e-05    5.12632e+00    2.27831e+00    5.69417e-01    5.69545e-01    5.69620e-01    5.69808e-01    1.42369e-01    1.42383e-01    1.42475e-01    1.42390e-01    2.90081e+00    9.79206e-01    7.25202e-01    5.37459e-01    7.25202e-01    2.44802e-01    1.34365e-01    1.34365e-01    2.44802e-01
    3.70000e+01    1.00000e+00   -5.69773e-06   -6.30559e-05    5.12623e+00    2.27827e+00    5.69518e-01    5.69541e-01    5.69532e-01    5.69758e-01    1.42384e-01    1.42369e-01    1.42445e-01    1.42414e-01    2.90081e+00    9.79206e-01    7.25202e-01    5.37459e-01    7.25202e-01    2.44802e-01    1.34365e-01    1.34365e-01    2.44802e-01
    3.80000e+01    1.00000e+00    2.05316e-05   -5.26406e-05    5.12615e+00    2.27823e+00    5.69582e-01    5.69520e-01    5.69522e-01    5.69698e-01    1.42388e-01    1.42363e-01    1.42410e-01    1.42431e-01    2.90081e+00    9.79206e-01    7.25202e-01    5.37459e-01    7.25202e-01    2.44802e-01    1.34365e-01    1.34365e-01    2.44802e-01
    3.90000e+01    1.00000e+00    0.00000e+00    0.00000e+00    5.12610e+00    2.27821e+00    5.69596e-01    5.69517e-01    5.69596e-01    5.69563e-01    1.42390e-01    1.42420e-01    1.42390e-01    1.42420e-01    2.90081e+00    9.79206e-01    7.25202e-01    5.37459e-01    7.25202e-01    2.44802e-01    1.34365e-01    1.34365e-01    2.44802e-01
    0.00000e+00    2.00000e+00    0.00000e+00    0.00000e+00    5.11757e+00    2.27422e+00    5.68713e-01    5.68668e-01    5.68713e-01    5.68510e-01    1.42236e-01    1.42136e-01    1.42236e-01    1.42136e-01    2.90081e+00    9.79206e-01    7.25202e-01    5.37459e-01    7.25202e-01    2.44802e-01    1.34365e-01    1.34365e-01    2.44802e-01
    1.00000e+00    2.00000e+00   -2.18251e-04   -1.33463e-04    5.11741e+00    2.27415e+00    5.68430e-01    5.68201e-01    5.69162e-01    5.68688e-01    1.42039e-01    1.42249e-01    1.42330e-01    1.42155e-01    2.90081e+00    9.79206e-01    7.25202e-01    5.37459e-01    7.25202e-01    2.44802e-01    1.34365e-01    1.34365e-01    2.44802e-01
    2.00000e+00    2.00000e+00   -4.87564e-04   -7.93803e-05    5.11745e+00    2.27418e+00    5.67961e-01    5.68307e-01    5.69645e-01    5.68600e-01    1.41963e-01    1.42360e-01    1.42425e-01    1.42011e-01    2.90081e+00    9.79206e-01    7.25202e-01    5.37459e-01    7.25202e-01    2.44802e-01    1.34365e-01    1.34365e-01    2.44802e-01
    3.00000e+00    2.00000e+00   -7.82819e-04   -6.04260e-06    5.11751e+00    2.27421e+00    5.67522e-01    5.68404e-01    5.70196e-01    5.68429e-01    1.41862e-01    1.42508e-01    1.42531e-01    1.41845e-01    2.90081e+00    9.79206e-01    7.25202e-01    5.37459e-01    7.25202e-01    2.44802e-01    1.34365e-01    1.34365e-01    2.44802e-01
    4.00000e+00    2.00000e+00   -1.12202e-03    5.43541e-05    5.11751e+00    2.27422e+00    5.66986e-01    5.68462e-01    5.70818e-01    5.68280e-01    1.41768e-01    1.42650e-01    1.42675e-01    1.41647e-01    2.90081e+00    9.79206e-01    7.25202e-01    5.37459e-01    7.25202e-01    2.44802e-01    1.34365e-01    1.34365e-01    2.44802e-01
    5.00000e+00    2.00000e+00   -1.48370e-03    1.02453e-04    5.11759e+00    2.27427e+00    5.66383e-01    5.68531e-01    5.71461e-01    5.68191e-01    1.41672e-01    1.42797e-01    1.42838e-01    1.41447e-01    2.90081e+00    9.79206e-01    7.25202e-01    5.37459e-01    7.25202e-01    2.44802e-01    1.34365e-01    1.34365e-01    2.44802e-01