TITLE="LBM output"
VARIABLES = "X", "Y", "U","V","density","f0","f1","f2","f3","f4","f5","f6","f7","f8","feq0","feq1","feq2","feq3","feq4","feq5","feq6","feq7","feq8",
ZONE T = "fluid", I=40, J=40, F=POINT
SOLUTIONTIME=496
    0.00000e+00    0.00000e+00    0.00000e+00    0.00000e+00    5.06373e+00    2.24989e+00    5.62660e-01    5.62653e-01    5.62660e-01    5.62653e-01    1.40989e-01    1.40618e-01    1.40989e-01    1.40618e-01    2.84559e+00    9.60566e-01    7.11397e-01    5.27228e-01    7.11397e-01    2.40142e-01    1.31807e-01    1.31807e-01    2.40142e-01
    1.00000e+00    0.00000e+00    0.00000e+00    0.00000e+00    5.06611e+00    2.25102e+00    5.62308e-01    5.63340e-01    5.62860e-01    5.63340e-01    1.40924e-01    1.40695e-01    1.40924e-01    1.40695e-01    2.84559e+00    9.60566e-01    7.11397e-01    5.27228e-01    7.11397e-01    2.40142e-01    1.31807e-01    1.31807e-01    2.40142e-01
    2.00000e+00    0.00000e+00    0.00000e+00    0.00000e+00    5.06541e+00    2.25075e+00    5.63139e-01    5.62983e-01    5.62467e-01    5.62983e-01    1.40950e-01    1.40596e-01    1.40950e-01    1.40596e-01    2.84559e+00    9.60566e-01    7.11397e-01    5.27228e-01    7.11397e-01    2.40142e-01    1.31807e-01    1.31807e-01    2.40142e-01
    3.00000e+00    0.00000e+00    0.00000e+00    0.00000e+00    5.06366e+00    2.24997e+00    5.62323e-01    5.63047e-01    5.62518e-01    5.63047e-01    1.40967e-01    1.40409e-01    1.40967e-01    1.40409e-01    2.84559e+00    9.60566e-01    7.11397e-01    5.27228e-01    7.11397e-01    2.40142e-01    1.31807e-01    1.31807e-01    2.40142e-01
    4.00000e+00    0.00000e+00    0.00000e+00    0.00000e+00    5.06278e+00    2.24962e+00    5.62636e-01    5.62741e-01    5.62253e-01    5.62741e-01    1.40970e-01    1.40425e-01    1.40970e-01    1.40425e-01    2.84559e+00    9.60566e-01    7.11397e-01    5.27228e-01    7.11397e-01    2.40142e-01    1.31807e-01    1.31807e-01    2.40142e-01
    5.00000e+00    0.00000e+00    0.00000e+00    0.00000e+00    5.06077e+00    2.24876e+00    5.62236e-01    5.62539e-01    5.62101e-01    5.62539e-01    1.41020e-01    1.40277e-01    1.41020e-01    1.40277e-01    2.84559e+00    9.60566e-01    7.11397e-01    5.27228e-01    7.11397e-01    2.40142e-01    1.31807e-01    1.31807e-01    2.40142e-01
    6.00000e+00    0.00000e+00    0.00000e+00    0.00000e+00    5.05917e+00    2.24809e+00    5.62158e-01    5.62313e-01    5.61907e-01    5.62313e-01    1.41042e-01    1.40152e-01    1.41042e-01    1.40152e-01    2.84559e+00    9.60566e-01    7.11397e-01    5.27228e-01    7.11397e-01    2.40142e-01    1.31807e-01    1.31807e-01    2.40142e-01
    7.00000e+00    0.00000e+00    0.00000e+00    0.00000e+00    5.05741e+00    2.24735e+00    5.61926e-01    5.62106e-01    5.61736e-01    5.62106e-01    1.41069e-01    1.40023e-01    1.41069e-01    1.40023e-01    2.84559e+00    9.60566e-01    7.11397e-01    5.27228e-01    7.11397e-01    2.40142e-01    1.31807e-01    1.31807e-01    2.40142e-01
    8.00000e+00    0.00000e+00    0.00000e+00    0.00000e+00    5.05582e+00    2.24669e+00    5.61776e-01    5.61899e-01    5.61578e-01    5.61899e-01    1.41101e-01    1.39888e-01    1.41101e-01    1.39888e-01    2.84559e+00    9.60566e-01    7.11397e-01    5.27228e-01    7.11397e-01    2.40142e-01    1.31807e-01    1.31807e-01    2.40142e-01
    9.00000e+00    0.00000e+00    0.00000e+00    0.00000e+00    5.05442e+00    2.24611e+00    5.61603e-01    5.61718e-01    5.61452e-01    5.61718e-01    1.41134e-01    1.39773e-01    1.41134e-01    1.39773e-01    2.84559e+00    9.60566e-01    7.11397e-01    5.27228e-01    7.11397e-01    2.40142e-01    1.31807e-01    1.31807e-01    2.40142e-01
    1.00000e+01    0.00000e+00    0.00000e+00    0.00000e+00    5.05330e+00    2.24566e+00    5.61479e-01    5.61570e-01    5.61358e-01    5.61570e-01    1.41169e-01    1.39662e-01    1.41169e-01    1.39662e-01    2.84559e+00    9.60566e-01    7.11397e-01    5.27228e-01    7.11397e-01    2.40142e-01    1.31807e-01    1.31807e-01    2.40142e-01
    1.10000e+01    0.00000e+00    0.00000e+00    0.00000e+00    5.05250e+00    2.24535e+00    5.61376e-01    5.61460e-01    5.61301e-01    5.61460e-01    1.41210e-01    1.39568e-01    1.41210e-01    1.39568e-01    2.84559e+00    9.60566e-01    7.11397e-01    5.27228e-01    7.11397e-01    2.40142e-01    1.31807e-01    1.31807e-01    2.40142e-01
    1.20000e+01    0.00000e+00    0.00000e+00    0.00000e+00    5.05207e+00    2.24519e+00    5.61315e-01    5.61394e-01    5.61285e-01    5.61394e-01    1.41255e-01    1.39488e-01    1.41255e-01    1.39488e-01    2.84559e+00    9.60566e-01    7.11397e-01    5.27228e-01    7.11397e-01    2.40142e-01    1.31807e-01    1.31807e-01    2.40142e-01
    1.30000e+01    0.00000e+00    0.00000e+00    0.00000e+00    5.05202e+00    2.24520e+00    5.61292e-01    5.61374e-01    5.61311e-01    5.61374e-01    1.41307e-01    1.39426e-01    1.41307e-01    1.39426e-01    2.84559e+00    9.60566e-01    7.11397e-01    5.27228e-01    7.11397e-01    2.40142e-01    1.31807e-01    1.31807e-01    2.40142e-01
    1.40000e+01    0.00000e+00    0.00000e+00    0.00000e+00    5.05235e+00    2.24537e+00    5.61311e-01    5.61402e-01    5.61378e-01    5.61402e-01    1.41365e-01    1.39380e-01    1.41365e-01    1.39380e-01    2.84559e+00    9.60566e-01    7.11397e-01    5.27228e-01    7.11397e-01    2.40142e-01    1.31807e-01    1.31807e-01    2.40142e-01
    1.50000e+01    0.00000e+00    0.00000e+00    0.00000e+00    5.05307e+00    2.24570e+00    5.61371e-01    5.61475e-01    5.61484e-01    5.61475e-01    1.41429e-01    1.39350e-01    1.41429e-01    1.39350e-01    2.84559e+00    9.60566e-01    7.11397e-01    5.27228e-01    7.11397e-01    2.40142e-01    1.31807e-01    1.31807e-01    2.40142e-01
    1.60000e+01    0.00000e+00    0.00000e+00    0.00000e+00    5.05414e+00    2.24619e+00    5.61471e-01    5.61592e-01    5.61627e-01    5.61592e-01    1.41498e-01    1.39337e-01    1.41498e-01    1.39337e-01    2.84559e+00    9.60566e-01    7.11397e-01    5.27228e-01    7.11397e-01    2.40142e-01    1.31807e-01    1.31807e-01    2.40142e-01
    1.70000e+01    0.00000e+00    0.00000e+00    0.00000e+00    5.05553e+00    2.24681e+00    5.61609e-01    5.61746e-01    5.61800e-01    5.61746e-01    1.41571e-01    1.39337e-01    1.41571e-01    1.39337e-01    2.84559e+00    9.60566e-01    7.11397e-01    5.27228e-01    7.11397e-01    2.40142e-01    1.31807e-01    1.31807e-01    2.40142e-01
    1.80000e+01    0.00000e+00    0.00000e+00    0.00000e+00    5.05717e+00    2.24755e+00    5.61778e-01    5.61930e-01    5.61997e-01    5.61930e-01    1.41645e-01    1.39350e-01    1.41645e-01    1.39350e-01    2.84559e+00    9.60566e-01    7.11397e-01    5.27228e-01    7.11397e-01    2.40142e-01    1.31807e-01    1.31807e-01    2.40142e-01
    1.90000e+01    0.00000e+00    0.00000e+00    0.00000e+00    5.05900e+00    2.24837e+00    5.61973e-01    5.62135e-01    5.62211e-01    5.62135e-01    1.41716e-01    1.39375e-01    1.41716e-01    1.39375e-01    2.84559e+00    9.60566e-01    7.11397e-01    5.27228e-01    7.11397e-01    2.40142e-01    1.31807e-01    1.31807e-01    2.40142e-01
    2.00000e+01    0.00000e+00    0.00000e+00    0.00000e+00    5.06094e+00    2.24923e+00    5.62185e-01    5.62352e-01    5.62432e-01    5.62352e-01    1.41781e-01    1.39411e-01    1.41781e-01    1.39411e-01    2.84559e+00    9.60566e-01    7.11397e-01    5.27228e-01    7.11397e-01    2.40142e-01    1.31807e-01    1.31807e-01    2.40142e-01
    2.10000e+01    0.00000e+00    0.00000e+00    0.00000e+00    5.06289e+00    2.25011e+00    5.62406e-01    5.62570e-01    5.62650e-01    5.62570e-01    1.41838e-01    1.39454e-01    1.41838e-01    1.39454e-01    2.84559e+00    9.60566e-01    7.11397e-01    5.27228e-01    7.11397e-01    2.40142e-01    1.31807e-01    1.31807e-01    2.40142e-01
    2.20000e+01    0.00000e+00    0.00000e+00    0.00000e+00    5.06478e+00    2.25097e+00    5.62626e-01    5.62777e-01    5.62856e-01    5.62777e-01    1.41882e-01    1.39505e-01    1.41882e-01    1.39505e-01    2.84559e+00    9.60566e-01    7.11397e-01    5.27228e-01    7.11397e-01    2.40142e-01    1.31807e-01    1.31807e-01    2.40142e-01
    2.30000e+01    0.00000e+00    0.00000e+00    0.00000e+00    5.06651e+00    2.25176e+00    5.62836e-01    5.62965e-01    5.63041e-01    5.62965e-01    1.41908e-01    1.39562e-01    1.41908e-01    1.39562e-01    2.84559e+00    9.60566e-01    7.11397e-01    5.27228e-01    7.11397e-01    2.40142e-01    1.31807e-01    1.31807e-01    2.40142e-01
    2.40000e+01    0.00000e+00    0.00000e+00    0.00000e+00    5.06801e+00    2.25246e+00    5.63026e-01    5.63124e-01    5.63198e-01    5.63124e-01    1.41916e-01    1.39624e-01    1.41916e-01    1.39624e-01    2.84559e+00    9.60566e-01    7.11397e-01    5.27228e-01    7.11397e-01    2.40142e-01    1.31807e-01    1.31807e-01    2.40142e-01
    2.50000e+01    0.00000e+00    0.00000e+00    0.00000e+00    5.06921e+00    2.25303e+00    5.63188e-01    5.63247e-01    5.63322e-01    5.63247e-01    1.41902e-01    1.39689e-01    1.41902e-01    1.39689e-01    2.84559e+00    9.60566e-01    7.11397e-01    5.27228e-01    7.11397e-01    2.40142e-01    1.31807e-01    1.31807e-01    2.40142e-01
    2.60000e+01    0.00000e+00    0.00000e+00    0.00000e+00    5.07009e+00    2.25345e+00    5.63317e-01    5.63332e-01    5.63407e-01    5.63332e-01    1.41865e-01    1.39759e-01    1.41865e-01    1.39759e-01    2.84559e+00    9.60566e-01    7.11397e-01    5.27228e-01    7.11397e-01    2.40142e-01    1.31807e-01    1.31807e-01    2.40142e-01
    2.70000e+01    0.00000e+00    0.00000e+00    0.00000e+00    5.07062e+00    2.25373e+00    5.63408e-01    5.63376e-01    5.63453e-01    5.63376e-01    1.41807e-01    1.39832e-01    1.41807e-01    1.39832e-01    2.84559e+00    9.60566e-01    7.11397e-01    5.27228e-01    7.11397e-01    2.40142e-01    1.31807e-01    1.31807e-01    2.40142e-01
    2.80000e+01    0.00000e+00    0.00000e+00    0.00000e+00    5.07079e+00    2.25384e+00    5.63459e-01    5.63380e-01    5.63460e-01    5.63380e-01    1.41729e-01    1.39906e-01    1.41729e-01    1.39906e-01    2.84559e+00    9.60566e-01    7.11397e-01    5.27228e-01    7.11397e-01    2.40142e-01    1.31807e-01    1.31807e-01    2.40142e-01
    2.90000e+01    0.00000e+00    0.00000e+00    0.00000e+00    5.07062e+00    2.25380e+00    5.63470e-01    5.63346e-01    5.63430e-01    5.63346e-01    1.41633e-01    1.39982e-01    1.41633e-01    1.39982e-01    2.84559e+00    9.60566e-01    7.11397e-01    5.27228e-01    7.11397e-01    2.40142e-01    1.31807e-01    1.31807e-01    2.40142e-01
    3.00000e+01    0.00000e+00    0.00000e+00    0.00000e+00    5.07016e+00    2.25363e+00    5.63444e-01    5.63280e-01    5.63371e-01    5.63280e-01    1.41520e-01    1.40059e-01    1.41520e-01    1.40059e-01    2.84559e+00    9.60566e-01    7.11397e-01    5.27228e-01    7.11397e-01    2.40142e-01    1.31807e-01    1.31807e-01    2.40142e-01
    3.10000e+01    0.00000e+00    0.00000e+00    0.00000e+00    5.06945e+00    2.25333e+00    5.63385e-01    5.63187e-01    5.63278e-01    5.63187e-01    1.41403e-01    1.40135e-01    1.41403e-01    1.40135e-01    2.84559e+00    9.60566e-01    7.11397e-01    5.27228e-01    7.11397e-01    2.40142e-01    1.31807e-01    1.31807e-01    2.40142e-01
    3.20000e+01    0.00000e+00    0.00000e+00    0.00000e+00    5.06855e+00    2.25295e+00    5.63299e-01    5.63073e-01    5.63185e-01    5.63073e-01    1.41272e-01    1.40211e-01    1.41272e-01    1.40211e-01    2.84559e+00    9.60566e-01    7.11397e-01    5.27228e-01    7.11397e-01    2.40142e-01    1.31807e-01    1.31807e-01    2.40142e-01
    3.30000e+01    0.00000e+00    0.00000e+00    0.00000e+00    5.06750e+00    2.25250e+00    5.63195e-01    5.62953e-01    5.63042e-01    5.62953e-01    1.41147e-01    1.40280e-01    1.41147e-01    1.40280e-01    2.84559e+00    9.60566e-01    7.11397e-01    5.27228e-01    7.11397e-01    2.40142e-01    1.31807e-01    1.31807e-01    2.40142e-01
    3.40000e+01    0.00000e+00    0.00000e+00    0.00000e+00    5.06652e+00    2.25207e+00    5.63074e-01    5.62821e-01    5.62989e-01    5.62821e-01    1.41026e-01    1.40345e-01    1.41026e-01    1.40345e-01    2.84559e+00    9.60566e-01    7.11397e-01    5.27228e-01    7.11397e-01    2.40142e-01    1.31807e-01    1.31807e-01    2.40142e-01
    3.50000e+01    0.00000e+00    0.00000e+00    0.00000e+00    5.06527e+00    2.25152e+00    5.62976e-01    5.62703e-01    5.62738e-01    5.62703e-01    1.40899e-01    1.40417e-01    1.40899e-01    1.40417e-01    2.84559e+00    9.60566e-01    7.11397e-01    5.27228e-01    7.11397e-01    2.40142e-01    1.31807e-01    1.31807e-01    2.40142e-01
    3.60000e+01    0.00000e+00    0.00000e+00    0.00000e+00    5.06468e+00    2.25127e+00    5.62807e-01    5.62522e-01    5.62913e-01    5.62522e-01    1.40863e-01    1.40460e-01    1.40863e-01    1.40460e-01    2.84559e+00    9.60566e-01    7.11397e-01    5.27228e-01    7.11397e-01    2.40142e-01    1.31807e-01    1.31807e-01    2.40142e-01
    3.70000e+01    0.00000e+00    0.00000e+00    0.00000e+00    5.06362e+00    2.25079e+00    5.62827e-01    5.62550e-01    5.62433e-01    5.62550e-01    1.40733e-01    1.40501e-01    1.40733e-01    1.40501e-01    2.84559e+00    9.60566e-01    7.11397e-01    5.27228e-01    7.11397e-01    2.40142e-01    1.31807e-01    1.31807e-01    2.40142e-01
    3.80000e+01    0.00000e+00    0.00000e+00    0.00000e+00    5.06311e+00    2.25058e+00    5.62592e-01    5.62334e-01    5.62886e-01    5.62334e-01    1.40652e-01    1.40541e-01    1.40652e-01    1.40541e-01    2.84559e+00    9.60566e-01    7.11397e-01    5.27228e-01    7.11397e-01    2.40142e-01    1.31807e-01    1.31807e-01    2.40142e-01
    3.90000e+01    0.00000e+00    0.00000e+00    0.00000e+00    5.06437e+00    2.25118e+00    5.62691e-01    5.62701e-01    5.62691e-01    5.62701e-01    1.40699e-01    1.40503e-01    1.40699e-01    1.40503e-01    2.84559e+00    9.60566e-01    7.11397e-01    5.27228e-01    7.11397e-01    2.40142e-01    1.31807e-01    1.31807e-01    2.40142e-01
    0.00000e+00    1.00000e+00    0.00000e+00    0.00000e+00    5.06614e+00    2.25103e+00    5.63341e-01    5.62314e-01    5.63341e-01    5.62875e-01    1.40933e-01    1.40683e-01    1.40933e-01    1.40683e-01    2.84559e+00    9.60566e-01    7.11397e-01    5.27228e-01    7.11397e-01    2.40142e-01    1.31807e-01    1.31807e-01    2.40142e-01
    1.00000e+00    1.00000e+00   -4.73771e-04   -4.24062e-04    5.06554e+00    2.25078e+00    5.62259e-01    5.62253e-01    5.63761e-01    5.63569e-01    1.40302e-01    1.40742e-01    1.41167e-01    1.40710e-01    2.84559e+00    9.60566e-01    7.11397e-01    5.27228e-01    7.11397e-01    2.40142e-01    1.31807e-01    1.31807e-01    2.40142e-01
    2.00000e+00    1.00000e+00   -6.56861e-04   -3.13679e-04    5.06481e+00    2.25047e+00    5.61511e-01    5.62424e-01    5.63810e-01    5.63410e-01    1.40474e-01    1.40814e-01    1.41289e-01    1.40602e-01    2.84559e+00    9.60566e-01    7.11397e-01    5.27228e-01    7.11397e-01    2.40142e-01    1.31807e-01    1.31807e-01    2.40142e-01
    3.00000e+00    1.00000e+00   -8.26079e-04   -3.39165e-04    5.06380e+00    2.25005e+00    5.61383e-01    5.62034e-01    5.64204e-01    5.63173e-01    1.40419e-01    1.40769e-01    1.41390e-01    1.40377e-01    2.84559e+00    9.60566e-01    7.11397e-01    5.27228e-01    7.11397e-01    2.40142e-01    1.31807e-01    1.31807e-01    2.40142e-01
    4.00000e+00    1.00000e+00   -1.09964e-03   -2.56130e-04    5.06243e+00    2.24947e+00    5.60744e-01    5.62119e-01    5.64474e-01    5.62912e-01    1.40310e-01    1.40796e-01    1.41481e-01    1.40130e-01    2.84559e+00    9.60566e-01    7.11397e-01    5.27228e-01    7.11397e-01    2.40142e-01    1.31807e-01    1.31807e-01    2.40142e-01
    5.00000e+00    1.00000e+00   -1.37238e-03   -2.13815e-04    5.06075e+00    2.24875e+00    5.60139e-01    5.61900e-01    5.64804e-01    5.62587e-01    1.40265e-01    1.40823e-01    1.41603e-01    1.39880e-01    2.84559e+00    9.60566e-01    7.11397e-01    5.27228e-01    7.11397e-01    2.40142e-01    1.31807e-01    1.31807e-01    2.40142e-01
    6.00000e+00    1.00000e+00   -1.65679e-03   -1.93018e-04    5.05907e+00    2.24804e+00    5.59465e-01    5.61779e-01    5.65087e-01    5.62385e-01    1.40129e-01    1.40845e-01    1.41694e-01    1.39650e-01    2.84559e+00    9.60566e-01    7.11397e-01    5.27228e-01    7.11397e-01    2.40142e-01    1.31807e-01    1.31807e-01    2.40142e-01
    7.00000e+00    1.00000e+00   -1.92552e-03   -1.61866e-04    5.05740e+00    2.24733e+00    5.58822e-01    5.61619e-01    5.65363e-01    5.62120e-01    1.40036e-01    1.40876e-01    1.41793e-01    1.39437e-01    2.84559e+00    9.60566e-01    7.11397e-01    5.27228e-01    7.11397e-01    2.40142e-01    1.31807e-01    1.31807e-01    2.40142e-01
    8.00000e+00    1.00000e+00   -2.18652e-03   -1.29819e-04    5.05584e+00    2.24668e+00    5.58215e-01    5.61490e-01    5.65635e-01    5.61884e-01    1.39935e-01    1.40901e-01    1.41883e-01    1.39215e-01    2.84559e+00    9.60566e-01    7.11397e-01    5.27228e-01    7.11397e-01    2.40142e-01    1.31807e-01    1.31807e-01    2.40142e-01
    9.00000e+00    1.00000e+00   -2.43378e-03   -1.02207e-04    5.05447e+00    2.24612e+00    5.57638e-01    5.61379e-01    5.65898e-01    5.61682e-01    1.39840e-01    1.40934e-01    1.41968e-01    1.39020e-01    2.84559e+00    9.60566e-01    7.11397e-01    5.27228e-01    7.11397e-01    2.40142e-01    1.31807e-01    1.31807e-01    2.40142e-01
    1.00000e+01    1.00000e+00   -2.66127e-03   -7.68373e-05    5.05338e+00    2.24567e+00    5.57125e-01    5.61297e-01    5.66155e-01    5.61515e-01    1.39755e-01    1.40968e-01    1.42050e-01    1.38845e-01    2.84559e+00    9.60566e-01    7.11397e-01    5.27228e-01    7.11397e-01    2.40142e-01    1.31807e-01    1.31807e-01    2.40142e-01
    1.10000e+01    1.00000e+00   -2.86848e-03   -5.49495e-05    5.05260e+00    2.24536e+00    5.56680e-01    5.61246e-01    5.66413e-01    5.61390e-01    1.39683e-01    1.41007e-01    1.42129e-01    1.38693e-01    2.84559e+00    9.60566e-01    7.11397e-01    5.27228e-01    7.11397e-01    2.40142e-01    1.31807e-01    1.31807e-01    2.40142e-01
    1.20000e+01    1.00000e+00   -3.05570e-03   -3.73296e-05    5.05218e+00    2.24520e+00    5.56307e-01    5.61229e-01    5.66675e-01    5.61316e-01    1.39623e-01    1.41050e-01    1.42209e-01    1.38566e-01    2.84559e+00    9.60566e-01    7.11397e-01    5.27228e-01    7.11397e-01    2.40142e-01    1.31807e-01    1.31807e-01    2.40142e-01
    1.30000e+01    1.00000e+00   -3.22330e-03   -2.44341e-05    5.05213e+00    2.24521e+00    5.56008e-01    5.61248e-01    5.66945e-01    5.61292e-01    1.39576e-01    1.41099e-01    1.42290e-01    1.38465e-01    2.84559e+00    9.60566e-01    7.11397e-01    5.27228e-01    7.11397e-01    2.40142e-01    1.31807e-01    1.31807e-01    2.40142e-01
    1.40000e+01    1.00000e+00   -3.37210e-03   -1.62349e-05    5.05247e+00    2.24538e+00    5.55782e-01    5.61303e-01    5.67226e-01    5.61321e-01    1.39544e-01    1.41152e-01    1.42373e-01    1.38388e-01    2.84559e+00    9.60566e-01    7.11397e-01    5.27228e-01    7.11397e-01    2.40142e-01    1.31807e-01    1.31807e-01    2.40142e-01
    1.50000e+01    1.00000e+00   -3.50313e-03   -1.30474e-05    5.05318e+00    2.24571e+00    5.55627e-01    5.61395e-01    5.67518e-01    5.61402e-01    1.39524e-01    1.41211e-01    1.42459e-01    1.38334e-01    2.84559e+00    9.60566e-01    7.11397e-01    5.27228e-01    7.11397e-01    2.40142e-01    1.31807e-01    1.31807e-01    2.40142e-01
    1.60000e+01    1.00000e+00   -3.61701e-03   -1.40427e-05    5.05423e+00    2.24618e+00    5.55538e-01    5.61519e-01    5.67818e-01    5.61531e-01    1.39517e-01    1.41274e-01    1.42547e-01    1.38303e-01    2.84559e+00    9.60566e-01    7.11397e-01    5.27228e-01    7.11397e-01    2.40142e-01    1.31807e-01    1.31807e-01    2.40142e-01
    1.70000e+01    1.00000e+00   -3.71360e-03   -1.78338e-05    5.05559e+00    2.24679e+00    5.55510e-01    5.61674e-01    5.68123e-01    5.61699e-01    1.39523e-01    1.41341e-01    1.42637e-01    1.38293e-01    2.84559e+00    9.60566e-01    7.11397e-01    5.27228e-01    7.11397e-01    2.40142e-01    1.31807e-01    1.31807e-01    2.40142e-01
    1.80000e+01    1.00000e+00   -3.79211e-03   -2.42315e-05    5.05721e+00    2.24752e+00    5.55539e-01    5.61855e-01    5.68423e-01    5.61903e-01    1.39540e-01    1.41409e-01    1.42724e-01    1.38299e-01    2.84559e+00    9.60566e-01    7.11397e-01    5.27228e-01    7.11397e-01    2.40142e-01    1.31807e-01    1.31807e-01    2.40142e-01
    1.90000e+01    1.00000e+00   -3.85102e-03   -3.19673e-05    5.05900e+00    2.24832e+00    5.55618e-01    5.62056e-01    5.68708e-01    5.62132e-01    1.39566e-01    1.41475e-01    1.42805e-01    1.38322e-01    2.84559e+00    9.60566e-01    7.11397e-01    5.27228e-01    7.11397e-01    2.40142e-01    1.31807e-01    1.31807e-01    2.40142e-01
    2.00000e+01    1.00000e+00   -3.88796e-03   -3.89765e-05    5.06090e+00    2.24917e+00    5.55744e-01    5.62270e-01    5.68965e-01    5.62371e-01    1.39603e-01    1.41539e-01    1.42878e-01    1.38359e-01    2.84559e+00    9.60566e-01    7.11397e-01    5.27228e-01    7.11397e-01    2.40142e-01    1.31807e-01    1.31807e-01    2.40142e-01
    2.10000e+01    1.00000e+00   -3.90001e-03   -4.46896e-05    5.06281e+00    2.25003e+00    5.55911e-01    5.62488e-01    5.69179e-01    5.62611e-01    1.39647e-01    1.41595e-01    1.42937e-01    1.38408e-01    2.84559e+00    9.60566e-01    7.11397e-01    5.27228e-01    7.11397e-01    2.40142e-01    1.31807e-01    1.31807e-01    2.40142e-01
    2.20000e+01    1.00000e+00   -3.88403e-03   -4.87618e-05    5.06465e+00    2.25086e+00    5.56117e-01    5.62703e-01    5.69336e-01    5.62844e-01    1.39698e-01    1.41641e-01    1.42977e-01    1.38468e-01    2.84559e+00    9.60566e-01    7.11397e-01    5.27228e-01    7.11397e-01    2.40142e-01    1.31807e-01    1.31807e-01    2.40142e-01
    2.30000e+01    1.00000e+00   -3.83672e-03   -4.95582e-05    5.06633e+00    2.25164e+00    5.56356e-01    5.62906e-01    5.69419e-01    5.63054e-01    1.39755e-01    1.41674e-01    1.42994e-01    1.38538e-01    2.84559e+00    9.60566e-01    7.11397e-01    5.27228e-01    7.11397e-01    2.40142e-01    1.31807e-01    1.31807e-01    2.40142e-01
    2.40000e+01    1.00000e+00   -3.75512e-03   -4.69904e-05    5.06780e+00    2.25232e+00    5.56629e-01    5.63089e-01    5.69417e-01    5.63233e-01    1.39817e-01    1.41691e-01    1.42985e-01    1.38617e-01    2.84559e+00    9.60566e-01    7.11397e-01    5.27228e-01    7.11397e-01    2.40142e-01    1.31807e-01    1.31807e-01    2.40142e-01
    2.50000e+01    1.00000e+00   -3.63703e-03   -4.20145e-05    5.06898e+00    2.25288e+00    5.56931e-01    5.63244e-01    5.69320e-01    5.63378e-01    1.39883e-01    1.41690e-01    1.42946e-01    1.38706e-01    2.84559e+00    9.60566e-01    7.11397e-01    5.27228e-01    7.11397e-01    2.40142e-01    1.31807e-01    1.31807e-01    2.40142e-01
    2.60000e+01    1.00000e+00   -3.48130e-03   -3.44263e-05    5.06984e+00    2.25330e+00    5.57262e-01    5.63368e-01    5.69123e-01    5.63483e-01    1.39951e-01    1.41670e-01    1.42875e-01    1.38804e-01    2.84559e+00    9.60566e-01    7.11397e-01    5.27228e-01    7.11397e-01    2.40142e-01    1.31807e-01    1.31807e-01    2.40142e-01
    2.70000e+01    1.00000e+00   -3.28805e-03   -2.45233e-05    5.07036e+00    2.25358e+00    5.57621e-01    5.63455e-01    5.68823e-01    5.63545e-01    1.40021e-01    1.41630e-01    1.42774e-01    1.38913e-01    2.84559e+00    9.60566e-01    7.11397e-01    5.27228e-01    7.11397e-01    2.40142e-01    1.31807e-01    1.31807e-01    2.40142e-01
    2.80000e+01    1.00000e+00   -3.05907e-03   -1.36888e-05    5.07054e+00    2.25370e+00    5.58005e-01    5.63505e-01    5.68427e-01    5.63565e-01    1.40092e-01    1.41572e-01    1.42641e-01    1.39032e-01    2.84559e+00    9.60566e-01    7.11397e-01    5.27228e-01    7.11397e-01    2.40142e-01    1.31807e-01    1.31807e-01    2.40142e-01
    2.90000e+01    1.00000e+00   -2.79793e-03   -2.82664e-06    5.07039e+00    2.25367e+00    5.58412e-01    5.63517e-01    5.67942e-01    5.63548e-01    1.40161e-01    1.41497e-01    1.42481e-01    1.39161e-01    2.84559e+00    9.60566e-01    7.11397e-01    5.27228e-01    7.11397e-01    2.40142e-01    1.31807e-01    1.31807e-01    2.40142e-01
    3.00000e+01    1.00000e+00   -2.50969e-03    8.53665e-06    5.06995e+00    2.25351e+00    5.58838e-01    5.63494e-01    5.67384e-01    5.63493e-01    1.40229e-01    1.41409e-01    1.42297e-01    1.39299e-01    2.84559e+00    9.60566e-01    7.11397e-01    5.27228e-01    7.11397e-01    2.40142e-01    1.31807e-01    1.31807e-01    2.40142e-01
    3.10000e+01    1.00000e+00   -2.20011e-03    1.95095e-05    5.06927e+00    2.25324e+00    5.59276e-01    5.63441e-01    5.66764e-01    5.63408e-01    1.40295e-01    1.41310e-01    1.42094e-01    1.39445e-01    2.84559e+00    9.60566e-01    7.11397e-01    5.27228e-01    7.11397e-01    2.40142e-01    1.31807e-01    1.31807e-01    2.40142e-01
    3.20000e+01    1.00000e+00   -1.87903e-03    3.21799e-05    5.06841e+00    2.25288e+00    5.59725e-01    5.63364e-01    5.66122e-01    5.63293e-01    1.40354e-01    1.41206e-01    1.41871e-01    1.39597e-01    2.84559e+00    9.60566e-01    7.11397e-01    5.27228e-01    7.11397e-01    2.40142e-01    1.31807e-01    1.31807e-01    2.40142e-01
    3.30000e+01    1.00000e+00   -1.55664e-03    4.43695e-05    5.06744e+00    2.25246e+00    5.60170e-01    5.63263e-01    5.65463e-01    5.63153e-01    1.40414e-01    1.41107e-01    1.41655e-01    1.39752e-01    2.84559e+00    9.60566e-01    7.11397e-01    5.27228e-01    7.11397e-01    2.40142e-01    1.31807e-01    1.31807e-01    2.40142e-01
    3.40000e+01    1.00000e+00   -1.23426e-03    5.29065e-05    5.06643e+00    2.25203e+00    5.60606e-01    5.63179e-01    5.64806e-01    5.63035e-01    1.40464e-01    1.40988e-01    1.41429e-01    1.39900e-01    2.84559e+00    9.60566e-01    7.11397e-01    5.27228e-01    7.11397e-01    2.40142e-01    1.31807e-01    1.31807e-01    2.40142e-01
    3.50000e+01    1.00000e+00   -9.31687e-04    7.25582e-05    5.06540e+00    2.25158e+00    5.61046e-01    5.63031e-01    5.64209e-01    5.62843e-01    1.40515e-01    1.40924e-01    1.41203e-01    1.40056e-01    2.84559e+00    9.60566e-01    7.11397e-01    5.27228e-01    7.11397e-01    2.40142e-01    1.31807e-01    1.31807e-01    2.40142e-01
    3.60000e+01    1.00000e+00   -6.44092e-04    1.20499e-04    5.06455e+00    2.25120e+00    5.61427e-01    5.63063e-01    5.63624e-01    5.62675e-01    1.40560e-01    1.40832e-01    1.40981e-01    1.40188e-01    2.84559e+00    9.60566e-01    7.11397e-01    5.27228e-01    7.11397e-01    2.40142e-01    1.31807e-01    1.31807e-01    2.40142e-01
    3.70000e+01    1.00000e+00   -4.38070e-04    1.14229e-04    5.06390e+00    2.25092e+00    5.61853e-01    5.62828e-01    5.63379e-01    5.62493e-01    1.40564e-01    1.40773e-01    1.40789e-01    1.40305e-01    2.84559e+00    9.60566e-01    7.11397e-01    5.27228e-01    7.11397e-01    2.40142e-01    1.31807e-01    1.31807e-01    2.40142e-01
    3.80000e+01    1.00000e+00   -2.70703e-04    2.03218e-04    5.06343e+00    2.25071e+00    5.62038e-01    5.62912e-01    5.62905e-01    5.62298e-01    1.40620e-01    1.40868e-01    1.40665e-01    1.40408e-01    2.84559e+00    9.60566e-01    7.11397e-01    5.27228e-01    7.11397e-01    2.40142e-01    1.31807e-01    1.31807e-01    2.40142e-01
    3.90000e+01    1.00000e+00    0.00000e+00    0.00000e+00    5.06306e+00    2.25055e+00    5.62332e-01    5.62877e-01    5.62332e-01    5.62569e-01    1.40669e-01    1.40530e-01    1.40669e-01    1.40530e-01    2.84559e+00    9.60566e-01    7.11397e-01    5.27228e-01    7.11397e-01    2.40142e-01    1.31807e-01    1.31807e-01    2.40142e-01
    0.00000e+00    2.00000e+00    0.00000e+00    0.00000e+00    5.06561e+00    2.25084e+00    5.63015e-01    5.63142e-01    5.63015e-01    5.62500e-01    1.40898e-01    1.40648e-01    1.40898e-01    1.40648e-01    2.84559e+00    9.60566e-01    7.11397e-01    5.27228e-01    7.11397e-01    2.40142e-01    1.31807e-01    1.31807e-01    2.40142e-01
    1.00000e+00    2.00000e+00   -4.24207e-04   -4.41356e-04    5.06492e+00    2.25053e+00    5.62440e-01    5.61674e-01    5.63828e-01    5.63244e-01    1.40470e-01    1.40797e-01    1.41183e-01    1.40749e-01    2.84559e+00    9.60566e-01    7.11397e-01    5.27228e-01    7.11397e-01    2.40142e-01    1.31807e-01    1.31807e-01    2.40142e-01
    2.00000e+00    2.00000e+00   -8.69648e-04   -4.70372e-04    5.06430e+00    2.25027e+00    5.61418e-01    5.61749e-01    5.64414e-01    5.63396e-01    1.40250e-01    1.40908e-01    1.41322e-01    1.40572e-01    2.84559e+00    9.60566e-01    7.11397e-01    5.27228e-01    7.11397e-01    2.40142e-01    1.31807e-01    1.31807e-01    2.40142e-01
    3.00000e+00    2.00000e+00   -1.25965e-03   -3.74683e-04    5.06331e+00    2.24985e+00    5.60733e-01    5.61808e-01    5.64982e-01    5.63075e-01    1.40016e-01    1.41101e-01    1.41396e-01    1.40351e-01    2.84559e+00    9.60566e-01    7.11397e-01    5.27228e-01    7.11397e-01    2.40142e-01    1.31807e-01    1.31807e-01    2.40142e-01
    4.00000e+00    2.00000e+00   -1.69173e-03   -2.90131e-04    5.06181e+00    2.24920e+00    5.59875e-01    5.61733e-01    5.65598e-01    5.62710e-01    1.39855e-01    1.41246e-01    1.41522e-01    1.40072e-01    2.84559e+00    9.60566e-01    7.11397e-01    5.27228e-01    7.11397e-01    2.40142e-01    1.31807e-01    1.31807e-01    2.40142e-01
    5.00000e+00    2.00000e+00   -2.11973e-03   -2.04460e-04    5.06036e+00    2.24858e+00    5.58941e-01    5.61720e-01    5.66139e-01    5.62433e-01    1.39728e-01    1.41385e-01    1.41654e-01    1.39781e-01    2.84559e+00    9.60566e-01    7.11397e-01    5.27228e-01    7.11397e-01    2.40142e-01    1.31807e-01    1.31807e-01    2.40142e-01