TITLE="LBM output"
VARIABLES = "X", "Y", "U","V","density","f0","f1","f2","f3","f4","f5","f6","f7","f8","feq0","feq1","feq2","feq3","feq4","feq5","feq6","feq7","feq8",
ZONE T = "fluid", I=40, J=40, F=POINT
SOLUTIONTIME=1673
    0.00000e+00    0.00000e+00    0.00000e+00    0.00000e+00    5.19277e+00    2.30795e+00    5.76972e-01    5.76973e-01    5.76972e-01    5.76973e-01    1.44215e-01    1.44247e-01    1.44215e-01    1.44247e-01    2.94162e+00    9.92984e-01    7.35405e-01    5.45021e-01    7.35405e-01    2.48246e-01    1.36255e-01    1.36255e-01    2.48246e-01
    1.00000e+00    0.00000e+00    0.00000e+00    0.00000e+00    5.19255e+00    2.30785e+00    5.77002e-01    5.76917e-01    5.76953e-01    5.76917e-01    1.44210e-01    1.44242e-01    1.44210e-01    1.44242e-01    2.94162e+00    9.92984e-01    7.35405e-01    5.45021e-01    7.35405e-01    2.48246e-01    1.36255e-01    1.36255e-01    2.48246e-01
    2.00000e+00    0.00000e+00    0.00000e+00    0.00000e+00    5.19251e+00    2.30784e+00    5.76933e-01    5.76929e-01    5.76968e-01    5.76929e-01    1.44211e-01    1.44247e-01    1.44211e-01    1.44247e-01    2.94162e+00    9.92984e-01    7.35405e-01    5.45021e-01    7.35405e-01    2.48246e-01    1.36255e-01    1.36255e-01    2.48246e-01
    3.00000e+00    0.00000e+00    0.00000e+00    0.00000e+00    5.19253e+00    2.30785e+00    5.76981e-01    5.76906e-01    5.76953e-01    5.76906e-01    1.44221e-01    1.44248e-01    1.44221e-01    1.44248e-01    2.94162e+00    9.92984e-01    7.35405e-01    5.45021e-01    7.35405e-01    2.48246e-01    1.36255e-01    1.36255e-01    2.48246e-01
    4.00000e+00    0.00000e+00    0.00000e+00    0.00000e+00    5.19249e+00    2.30782e+00    5.76945e-01    5.76912e-01    5.76961e-01    5.76912e-01    1.44248e-01    1.44218e-01    1.44248e-01    1.44218e-01    2.94162e+00    9.92984e-01    7.35405e-01    5.45021e-01    7.35405e-01    2.48246e-01    1.36255e-01    1.36255e-01    2.48246e-01
    5.00000e+00    0.00000e+00    0.00000e+00    0.00000e+00    5.19252e+00    2.30784e+00    5.76965e-01    5.76911e-01    5.76959e-01    5.76911e-01    1.44276e-01    1.44193e-01    1.44276e-01    1.44193e-01    2.94162e+00    9.92984e-01    7.35405e-01    5.45021e-01    7.35405e-01    2.48246e-01    1.36255e-01    1.36255e-01    2.48246e-01
    6.00000e+00    0.00000e+00    0.00000e+00    0.00000e+00    5.19255e+00    2.30785e+00    5.76956e-01    5.76917e-01    5.76967e-01    5.76917e-01    1.44315e-01    1.44156e-01    1.44315e-01    1.44156e-01    2.94162e+00    9.92984e-01    7.35405e-01    5.45021e-01    7.35405e-01    2.48246e-01    1.36255e-01    1.36255e-01    2.48246e-01
    7.00000e+00    0.00000e+00    0.00000e+00    0.00000e+00    5.19263e+00    2.30788e+00    5.76968e-01    5.76924e-01    5.76975e-01    5.76924e-01    1.44356e-01    1.44120e-01    1.44356e-01    1.44120e-01    2.94162e+00    9.92984e-01    7.35405e-01    5.45021e-01    7.35405e-01    2.48246e-01    1.36255e-01    1.36255e-01    2.48246e-01
    8.00000e+00    0.00000e+00    0.00000e+00    0.00000e+00    5.19272e+00    2.30792e+00    5.76972e-01    5.76936e-01    5.76988e-01    5.76936e-01    1.44403e-01    1.44080e-01    1.44403e-01    1.44080e-01    2.94162e+00    9.92984e-01    7.35405e-01    5.45021e-01    7.35405e-01    2.48246e-01    1.36255e-01    1.36255e-01    2.48246e-01
    9.00000e+00    0.00000e+00    0.00000e+00    0.00000e+00    5.19285e+00    2.30798e+00    5.76986e-01    5.76953e-01    5.77003e-01    5.76953e-01    1.44449e-01    1.44041e-01    1.44449e-01    1.44041e-01    2.94162e+00    9.92984e-01    7.35405e-01    5.45021e-01    7.35405e-01    2.48246e-01    1.36255e-01    1.36255e-01    2.48246e-01
    1.00000e+01    0.00000e+00    0.00000e+00    0.00000e+00    5.19302e+00    2.30805e+00    5.77000e-01    5.76973e-01    5.77023e-01    5.76973e-01    1.44498e-01    1.44002e-01    1.44498e-01    1.44002e-01    2.94162e+00    9.92984e-01    7.35405e-01    5.45021e-01    7.35405e-01    2.48246e-01    1.36255e-01    1.36255e-01    2.48246e-01
    1.10000e+01    0.00000e+00    0.00000e+00    0.00000e+00    5.19322e+00    2.30813e+00    5.77020e-01    5.76996e-01    5.77046e-01    5.76996e-01    1.44548e-01    1.43965e-01    1.44548e-01    1.43965e-01    2.94162e+00    9.92984e-01    7.35405e-01    5.45021e-01    7.35405e-01    2.48246e-01    1.36255e-01    1.36255e-01    2.48246e-01
    1.20000e+01    0.00000e+00    0.00000e+00    0.00000e+00    5.19345e+00    2.30823e+00    5.77042e-01    5.77024e-01    5.77074e-01    5.77024e-01    1.44597e-01    1.43930e-01    1.44597e-01    1.43930e-01    2.94162e+00    9.92984e-01    7.35405e-01    5.45021e-01    7.35405e-01    2.48246e-01    1.36255e-01    1.36255e-01    2.48246e-01
    1.30000e+01    0.00000e+00    0.00000e+00    0.00000e+00    5.19373e+00    2.30835e+00    5.77069e-01    5.77058e-01    5.77106e-01    5.77058e-01    1.44645e-01    1.43898e-01    1.44645e-01    1.43898e-01    2.94162e+00    9.92984e-01    7.35405e-01    5.45021e-01    7.35405e-01    2.48246e-01    1.36255e-01    1.36255e-01    2.48246e-01
    1.40000e+01    0.00000e+00    0.00000e+00    0.00000e+00    5.19404e+00    2.30849e+00    5.77101e-01    5.77096e-01    5.77142e-01    5.77096e-01    1.44692e-01    1.43870e-01    1.44692e-01    1.43870e-01    2.94162e+00    9.92984e-01    7.35405e-01    5.45021e-01    7.35405e-01    2.48246e-01    1.36255e-01    1.36255e-01    2.48246e-01
    1.50000e+01    0.00000e+00    0.00000e+00    0.00000e+00    5.19440e+00    2.30864e+00    5.77136e-01    5.77139e-01    5.77183e-01    5.77139e-01    1.44734e-01    1.43848e-01    1.44734e-01    1.43848e-01    2.94162e+00    9.92984e-01    7.35405e-01    5.45021e-01    7.35405e-01    2.48246e-01    1.36255e-01    1.36255e-01    2.48246e-01
    1.60000e+01    0.00000e+00    0.00000e+00    0.00000e+00    5.19480e+00    2.30881e+00    5.77176e-01    5.77188e-01    5.77228e-01    5.77188e-01    1.44772e-01    1.43833e-01    1.44772e-01    1.43833e-01    2.94162e+00    9.92984e-01    7.35405e-01    5.45021e-01    7.35405e-01    2.48246e-01    1.36255e-01    1.36255e-01    2.48246e-01
    1.70000e+01    0.00000e+00    0.00000e+00    0.00000e+00    5.19523e+00    2.30900e+00    5.77221e-01    5.77242e-01    5.77277e-01    5.77242e-01    1.44802e-01    1.43826e-01    1.44802e-01    1.43826e-01    2.94162e+00    9.92984e-01    7.35405e-01    5.45021e-01    7.35405e-01    2.48246e-01    1.36255e-01    1.36255e-01    2.48246e-01
    1.80000e+01    0.00000e+00    0.00000e+00    0.00000e+00    5.19570e+00    2.30920e+00    5.77270e-01    5.77299e-01    5.77329e-01    5.77299e-01    1.44826e-01    1.43829e-01    1.44826e-01    1.43829e-01    2.94162e+00    9.92984e-01    7.35405e-01    5.45021e-01    7.35405e-01    2.48246e-01    1.36255e-01    1.36255e-01    2.48246e-01
    1.90000e+01    0.00000e+00    0.00000e+00    0.00000e+00    5.19620e+00    2.30941e+00    5.77321e-01    5.77361e-01    5.77385e-01    5.77361e-01    1.44838e-01    1.43843e-01    1.44838e-01    1.43843e-01    2.94162e+00    9.92984e-01    7.35405e-01    5.45021e-01    7.35405e-01    2.48246e-01    1.36255e-01    1.36255e-01    2.48246e-01
    2.00000e+01    0.00000e+00    0.00000e+00    0.00000e+00    5.19672e+00    2.30964e+00    5.77376e-01    5.77425e-01    5.77442e-01    5.77425e-01    1.44839e-01    1.43869e-01    1.44839e-01    1.43869e-01    2.94162e+00    9.92984e-01    7.35405e-01    5.45021e-01    7.35405e-01    2.48246e-01    1.36255e-01    1.36255e-01    2.48246e-01
    2.10000e+01    0.00000e+00    0.00000e+00    0.00000e+00    5.19725e+00    2.30987e+00    5.77433e-01    5.77491e-01    5.77500e-01    5.77491e-01    1.44829e-01    1.43907e-01    1.44829e-01    1.43907e-01    2.94162e+00    9.92984e-01    7.35405e-01    5.45021e-01    7.35405e-01    2.48246e-01    1.36255e-01    1.36255e-01    2.48246e-01
    2.20000e+01    0.00000e+00    0.00000e+00    0.00000e+00    5.19779e+00    2.31010e+00    5.77491e-01    5.77558e-01    5.77557e-01    5.77558e-01    1.44807e-01    1.43957e-01    1.44807e-01    1.43957e-01    2.94162e+00    9.92984e-01    7.35405e-01    5.45021e-01    7.35405e-01    2.48246e-01    1.36255e-01    1.36255e-01    2.48246e-01
    2.30000e+01    0.00000e+00    0.00000e+00    0.00000e+00    5.19832e+00    2.31033e+00    5.77549e-01    5.77623e-01    5.77614e-01    5.77623e-01    1.44773e-01    1.44019e-01    1.44773e-01    1.44019e-01    2.94162e+00    9.92984e-01    7.35405e-01    5.45021e-01    7.35405e-01    2.48246e-01    1.36255e-01    1.36255e-01    2.48246e-01
    2.40000e+01    0.00000e+00    0.00000e+00    0.00000e+00    5.19884e+00    2.31055e+00    5.77606e-01    5.77686e-01    5.77668e-01    5.77686e-01    1.44730e-01    1.44090e-01    1.44730e-01    1.44090e-01    2.94162e+00    9.92984e-01    7.35405e-01    5.45021e-01    7.35405e-01    2.48246e-01    1.36255e-01    1.36255e-01    2.48246e-01
    2.50000e+01    0.00000e+00    0.00000e+00    0.00000e+00    5.19932e+00    2.31076e+00    5.77660e-01    5.77745e-01    5.77719e-01    5.77745e-01    1.44679e-01    1.44167e-01    1.44679e-01    1.44167e-01    2.94162e+00    9.92984e-01    7.35405e-01    5.45021e-01    7.35405e-01    2.48246e-01    1.36255e-01    1.36255e-01    2.48246e-01
    2.60000e+01    0.00000e+00    0.00000e+00    0.00000e+00    5.19978e+00    2.31096e+00    5.77712e-01    5.77800e-01    5.77765e-01    5.77800e-01    1.44623e-01    1.44249e-01    1.44623e-01    1.44249e-01    2.94162e+00    9.92984e-01    7.35405e-01    5.45021e-01    7.35405e-01    2.48246e-01    1.36255e-01    1.36255e-01    2.48246e-01
    2.70000e+01    0.00000e+00    0.00000e+00    0.00000e+00    5.20019e+00    2.31113e+00    5.77759e-01    5.77848e-01    5.77809e-01    5.77848e-01    1.44566e-01    1.44330e-01    1.44566e-01    1.44330e-01    2.94162e+00    9.92984e-01    7.35405e-01    5.45021e-01    7.35405e-01    2.48246e-01    1.36255e-01    1.36255e-01    2.48246e-01
    2.80000e+01    0.00000e+00    0.00000e+00    0.00000e+00    5.20056e+00    2.31129e+00    5.77802e-01    5.77891e-01    5.77843e-01    5.77891e-01    1.44512e-01    1.44407e-01    1.44512e-01    1.44407e-01    2.94162e+00    9.92984e-01    7.35405e-01    5.45021e-01    7.35405e-01    2.48246e-01    1.36255e-01    1.36255e-01    2.48246e-01
    2.90000e+01    0.00000e+00    0.00000e+00    0.00000e+00    5.20088e+00    2.31143e+00    5.77839e-01    5.77926e-01    5.77879e-01    5.77926e-01    1.44463e-01    1.44477e-01    1.44463e-01    1.44477e-01    2.94162e+00    9.92984e-01    7.35405e-01    5.45021e-01    7.35405e-01    2.48246e-01    1.36255e-01    1.36255e-01    2.48246e-01
    3.00000e+01    0.00000e+00    0.00000e+00    0.00000e+00    5.20116e+00    2.31156e+00    5.77873e-01    5.77956e-01    5.77902e-01    5.77956e-01    1.44423e-01    1.44537e-01    1.44423e-01    1.44537e-01    2.94162e+00    9.92984e-01    7.35405e-01    5.45021e-01    7.35405e-01    2.48246e-01    1.36255e-01    1.36255e-01    2.48246e-01
    3.10000e+01    0.00000e+00    0.00000e+00    0.00000e+00    5.20141e+00    2.31166e+00    5.77900e-01    5.77980e-01    5.77933e-01    5.77980e-01    1.44394e-01    1.44583e-01    1.44394e-01    1.44583e-01    2.94162e+00    9.92984e-01    7.35405e-01    5.45021e-01    7.35405e-01    2.48246e-01    1.36255e-01    1.36255e-01    2.48246e-01
    3.20000e+01    0.00000e+00    0.00000e+00    0.00000e+00    5.20161e+00    2.31175e+00    5.77926e-01    5.78002e-01    5.77942e-01    5.78002e-01    1.44380e-01    1.44613e-01    1.44380e-01    1.44613e-01    2.94162e+00    9.92984e-01    7.35405e-01    5.45021e-01    7.35405e-01    2.48246e-01    1.36255e-01    1.36255e-01    2.48246e-01
    3.30000e+01    0.00000e+00    0.00000e+00    0.00000e+00    5.20179e+00    2.31183e+00    5.77945e-01    5.78013e-01    5.77975e-01    5.78013e-01    1.44378e-01    1.44629e-01    1.44378e-01    1.44629e-01    2.94162e+00    9.92984e-01    7.35405e-01    5.45021e-01    7.35405e-01    2.48246e-01    1.36255e-01    1.36255e-01    2.48246e-01
    3.40000e+01    0.00000e+00    0.00000e+00    0.00000e+00    5.20191e+00    2.31188e+00    5.77966e-01    5.78030e-01    5.77965e-01    5.78030e-01    1.44391e-01    1.44630e-01    1.44391e-01    1.44630e-01    2.94162e+00    9.92984e-01    7.35405e-01    5.45021e-01    7.35405e-01    2.48246e-01    1.36255e-01    1.36255e-01    2.48246e-01
    3.50000e+01    0.00000e+00    0.00000e+00    0.00000e+00    5.20208e+00    2.31195e+00    5.77974e-01    5.78036e-01    5.78018e-01    5.78036e-01    1.44415e-01    1.44615e-01    1.44415e-01    1.44615e-01    2.94162e+00    9.92984e-01    7.35405e-01    5.45021e-01    7.35405e-01    2.48246e-01    1.36255e-01    1.36255e-01    2.48246e-01
    3.60000e+01    0.00000e+00    0.00000e+00    0.00000e+00    5.20213e+00    2.31198e+00    5.78000e-01    5.78069e-01    5.77966e-01    5.78069e-01    1.44434e-01    1.44593e-01    1.44434e-01    1.44593e-01    2.94162e+00    9.92984e-01    7.35405e-01    5.45021e-01    7.35405e-01    2.48246e-01    1.36255e-01    1.36255e-01    2.48246e-01
    3.70000e+01    0.00000e+00    0.00000e+00    0.00000e+00    5.20228e+00    2.31204e+00    5.77989e-01    5.78050e-01    5.78065e-01    5.78050e-01    1.44470e-01    1.44570e-01    1.44470e-01    1.44570e-01    2.94162e+00    9.92984e-01    7.35405e-01    5.45021e-01    7.35405e-01    2.48246e-01    1.36255e-01    1.36255e-01    2.48246e-01
    3.80000e+01    0.00000e+00    0.00000e+00    0.00000e+00    5.20235e+00    2.31207e+00    5.78027e-01    5.78097e-01    5.77963e-01    5.78097e-01    1.44508e-01    1.44539e-01    1.44508e-01    1.44539e-01    2.94162e+00    9.92984e-01    7.35405e-01    5.45021e-01    7.35405e-01    2.48246e-01    1.36255e-01    1.36255e-01    2.48246e-01
    3.90000e+01    0.00000e+00    0.00000e+00    0.00000e+00    5.20206e+00    2.31194e+00    5.78011e-01    5.78006e-01    5.78011e-01    5.78006e-01    1.44496e-01    1.44547e-01    1.44496e-01    1.44547e-01    2.94162e+00    9.92984e-01    7.35405e-01    5.45021e-01    7.35405e-01    2.48246e-01    1.36255e-01    1.36255e-01    2.48246e-01
    0.00000e+00    1.00000e+00    0.00000e+00    0.00000e+00    5.19255e+00    2.30786e+00    5.76903e-01    5.77002e-01    5.76903e-01    5.76954e-01    1.44227e-01    1.44240e-01    1.44227e-01    1.44240e-01    2.94162e+00    9.92984e-01    7.35405e-01    5.45021e-01    7.35405e-01    2.48246e-01    1.36255e-01    1.36255e-01    2.48246e-01
    1.00000e+00    1.00000e+00    4.34888e-05    3.81068e-05    5.19257e+00    2.30786e+00    5.77013e-01    5.77001e-01    5.76873e-01    5.76876e-01    1.44273e-01    1.44234e-01    1.44194e-01    1.44240e-01    2.94162e+00    9.92984e-01    7.35405e-01    5.45021e-01    7.35405e-01    2.48246e-01    1.36255e-01    1.36255e-01    2.48246e-01
    2.00000e+00    1.00000e+00    3.56344e-05    5.26766e-05    5.19255e+00    2.30786e+00    5.77066e-01    5.76985e-01    5.76937e-01    5.76801e-01    1.44266e-01    1.44234e-01    1.44192e-01    1.44217e-01    2.94162e+00    9.92984e-01    7.35405e-01    5.45021e-01    7.35405e-01    2.48246e-01    1.36255e-01    1.36255e-01    2.48246e-01
    3.00000e+00    1.00000e+00   -1.73079e-05    7.97760e-05    5.19254e+00    2.30785e+00    5.76999e-01    5.77005e-01    5.77057e-01    5.76719e-01    1.44264e-01    1.44255e-01    1.44216e-01    1.44176e-01    2.94162e+00    9.92984e-01    7.35405e-01    5.45021e-01    7.35405e-01    2.48246e-01    1.36255e-01    1.36255e-01    2.48246e-01
    4.00000e+00    1.00000e+00   -1.05198e-04    9.46609e-05    5.19254e+00    2.30785e+00    5.76886e-01    5.76992e-01    5.77246e-01    5.76652e-01    1.44257e-01    1.44276e-01    1.44274e-01    1.44107e-01    2.94162e+00    9.92984e-01    7.35405e-01    5.45021e-01    7.35405e-01    2.48246e-01    1.36255e-01    1.36255e-01    2.48246e-01
    5.00000e+00    1.00000e+00   -2.23992e-04    1.06053e-04    5.19257e+00    2.30786e+00    5.76704e-01    5.76999e-01    5.77477e-01    5.76614e-01    1.44234e-01    1.44305e-01    1.44346e-01    1.44027e-01    2.94162e+00    9.92984e-01    7.35405e-01    5.45021e-01    7.35405e-01    2.48246e-01    1.36255e-01    1.36255e-01    2.48246e-01
    6.00000e+00    1.00000e+00   -3.64721e-04    1.15281e-04    5.19261e+00    2.30788e+00    5.76487e-01    5.76999e-01    5.77745e-01    5.76580e-01    1.44214e-01    1.44337e-01    1.44442e-01    1.43929e-01    2.94162e+00    9.92984e-01    7.35405e-01    5.45021e-01    7.35405e-01    2.48246e-01    1.36255e-01    1.36255e-01    2.48246e-01
    7.00000e+00    1.00000e+00   -5.21278e-04    1.19335e-04    5.19268e+00    2.30791e+00    5.76233e-01    5.77008e-01    5.78034e-01    5.76572e-01    1.44185e-01    1.44372e-01    1.44546e-01    1.43827e-01    2.94162e+00    9.92984e-01    7.35405e-01    5.45021e-01    7.35405e-01    2.48246e-01    1.36255e-01    1.36255e-01    2.48246e-01
    8.00000e+00    1.00000e+00   -6.86335e-04    1.20737e-04    5.19278e+00    2.30795e+00    5.75965e-01    5.77016e-01    5.78337e-01    5.76574e-01    1.44156e-01    1.44408e-01    1.44659e-01    1.43720e-01    2.94162e+00    9.92984e-01    7.35405e-01    5.45021e-01    7.35405e-01    2.48246e-01    1.36255e-01    1.36255e-01    2.48246e-01
    9.00000e+00    1.00000e+00   -8.55685e-04    1.19292e-04    5.19292e+00    2.30800e+00    5.75688e-01    5.77028e-01    5.78647e-01    5.76590e-01    1.44124e-01    1.44446e-01    1.44776e-01    1.43614e-01    2.94162e+00    9.92984e-01    7.35405e-01    5.45021e-01    7.35405e-01    2.48246e-01    1.36255e-01    1.36255e-01    2.48246e-01
    1.00000e+01    1.00000e+00   -1.02600e-03    1.16765e-04    5.19308e+00    2.30807e+00    5.75411e-01    5.77043e-01    5.78960e-01    5.76614e-01    1.44095e-01    1.44484e-01    1.44896e-01    1.43506e-01    2.94162e+00    9.92984e-01    7.35405e-01    5.45021e-01    7.35405e-01    2.48246e-01    1.36255e-01    1.36255e-01    2.48246e-01
    1.10000e+01    1.00000e+00   -1.19402e-03    1.11849e-04    5.19328e+00    2.30815e+00    5.75137e-01    5.77063e-01    5.79269e-01    5.76650e-01    1.44064e-01    1.44523e-01    1.45015e-01    1.43404e-01    2.94162e+00    9.92984e-01    7.35405e-01    5.45021e-01    7.35405e-01    2.48246e-01    1.36255e-01    1.36255e-01    2.48246e-01
    1.20000e+01    1.00000e+00   -1.35638e-03    1.04851e-04    5.19351e+00    2.30825e+00    5.74874e-01    5.77085e-01    5.79569e-01    5.76697e-01    1.44036e-01    1.44560e-01    1.45132e-01    1.43307e-01    2.94162e+00    9.92984e-01    7.35405e-01    5.45021e-01    7.35405e-01    2.48246e-01    1.36255e-01    1.36255e-01    2.48246e-01
    1.30000e+01    1.00000e+00   -1.50935e-03    9.53224e-05    5.19379e+00    2.30837e+00    5.74628e-01    5.77111e-01    5.79853e-01    5.76757e-01    1.44008e-01    1.44597e-01    1.45245e-01    1.43220e-01    2.94162e+00    9.92984e-01    7.35405e-01    5.45021e-01    7.35405e-01    2.48246e-01    1.36255e-01    1.36255e-01    2.48246e-01
    1.40000e+01    1.00000e+00   -1.64846e-03    8.35245e-05    5.19410e+00    2.30850e+00    5.74405e-01    5.77142e-01    5.80112e-01    5.76829e-01    1.43985e-01    1.44631e-01    1.45352e-01    1.43143e-01    2.94162e+00    9.92984e-01    7.35405e-01    5.45021e-01    7.35405e-01    2.48246e-01    1.36255e-01    1.36255e-01    2.48246e-01
    1.50000e+01    1.00000e+00   -1.76877e-03    6.80990e-05    5.19445e+00    2.30865e+00    5.74214e-01    5.77176e-01    5.80338e-01    5.76920e-01    1.43964e-01    1.44661e-01    1.45447e-01    1.43081e-01    2.94162e+00    9.92984e-01    7.35405e-01    5.45021e-01    7.35405e-01    2.48246e-01    1.36255e-01    1.36255e-01    2.48246e-01
    1.60000e+01    1.00000e+00   -1.86489e-03    4.95695e-05    5.19484e+00    2.30881e+00    5.74063e-01    5.77214e-01    5.80521e-01    5.77025e-01    1.43948e-01    1.44687e-01    1.45528e-01    1.43038e-01    2.94162e+00    9.92984e-01    7.35405e-01    5.45021e-01    7.35405e-01    2.48246e-01    1.36255e-01    1.36255e-01    2.48246e-01
    1.70000e+01    1.00000e+00   -1.93116e-03    2.82011e-05    5.19526e+00    2.30899e+00    5.73962e-01    5.77256e-01    5.80651e-01    5.77144e-01    1.43938e-01    1.44707e-01    1.45593e-01    1.43017e-01    2.94162e+00    9.92984e-01    7.35405e-01    5.45021e-01    7.35405e-01    2.48246e-01    1.36255e-01    1.36255e-01    2.48246e-01
    1.80000e+01    1.00000e+00   -1.96226e-03    3.73169e-06    5.19572e+00    2.30919e+00    5.73921e-01    5.77300e-01    5.80718e-01    5.77279e-01    1.43935e-01    1.44719e-01    1.45636e-01    1.43021e-01    2.94162e+00    9.92984e-01    7.35405e-01    5.45021e-01    7.35405e-01    2.48246e-01    1.36255e-01    1.36255e-01    2.48246e-01
    1.90000e+01    1.00000e+00   -1.95361e-03   -2.35926e-05    5.19620e+00    2.30940e+00    5.73947e-01    5.77347e-01    5.80714e-01    5.77426e-01    1.43940e-01    1.44723e-01    1.45654e-01    1.43053e-01    2.94162e+00    9.92984e-01    7.35405e-01    5.45021e-01    7.35405e-01    2.48246e-01    1.36255e-01    1.36255e-01    2.48246e-01
    2.00000e+01    1.00000e+00   -1.90169e-03   -5.17483e-05    5.19671e+00    2.30962e+00    5.74048e-01    5.77397e-01    5.80635e-01    5.77579e-01    1.43955e-01    1.44719e-01    1.45646e-01    1.43114e-01    2.94162e+00    9.92984e-01    7.35405e-01    5.45021e-01    7.35405e-01    2.48246e-01    1.36255e-01    1.36255e-01    2.48246e-01
    2.10000e+01    1.00000e+00   -1.80494e-03   -8.03455e-05    5.19723e+00    2.30984e+00    5.74227e-01    5.77447e-01    5.80479e-01    5.77735e-01    1.43979e-01    1.44705e-01    1.45608e-01    1.43205e-01    2.94162e+00    9.92984e-01    7.35405e-01    5.45021e-01    7.35405e-01    2.48246e-01    1.36255e-01    1.36255e-01    2.48246e-01
    2.20000e+01    1.00000e+00   -1.66413e-03   -1.08588e-04    5.19775e+00    2.31007e+00    5.74485e-01    5.77498e-01    5.80248e-01    5.77891e-01    1.44012e-01    1.44681e-01    1.45541e-01    1.43324e-01    2.94162e+00    9.92984e-01    7.35405e-01    5.45021e-01    7.35405e-01    2.48246e-01    1.36255e-01    1.36255e-01    2.48246e-01
    2.30000e+01    1.00000e+00   -1.48240e-03   -1.33787e-04    5.19827e+00    2.31029e+00    5.74817e-01    5.77549e-01    5.79950e-01    5.78035e-01    1.44056e-01    1.44651e-01    1.45447e-01    1.43469e-01    2.94162e+00    9.92984e-01    7.35405e-01    5.45021e-01    7.35405e-01    2.48246e-01    1.36255e-01    1.36255e-01    2.48246e-01
    2.40000e+01    1.00000e+00   -1.26582e-03   -1.54577e-04    5.19877e+00    2.31051e+00    5.75216e-01    5.77598e-01    5.79598e-01    5.78161e-01    1.44108e-01    1.44614e-01    1.45328e-01    1.43634e-01    2.94162e+00    9.92984e-01    7.35405e-01    5.45021e-01    7.35405e-01    2.48246e-01    1.36255e-01    1.36255e-01    2.48246e-01
    2.50000e+01    1.00000e+00   -1.02321e-03   -1.70540e-04    5.19925e+00    2.31072e+00    5.75667e-01    5.77645e-01    5.79207e-01    5.78268e-01    1.44166e-01    1.44571e-01    1.45188e-01    1.43814e-01    2.94162e+00    9.92984e-01    7.35405e-01    5.45021e-01    7.35405e-01    2.48246e-01    1.36255e-01    1.36255e-01    2.48246e-01
    2.60000e+01    1.00000e+00   -7.65468e-04   -1.79743e-04    5.19970e+00    2.31092e+00    5.76153e-01    5.77689e-01    5.78799e-01    5.78346e-01    1.44230e-01    1.44528e-01    1.45036e-01    1.44000e-01    2.94162e+00    9.92984e-01    7.35405e-01    5.45021e-01    7.35405e-01    2.48246e-01    1.36255e-01    1.36255e-01    2.48246e-01
    2.70000e+01    1.00000e+00   -5.05208e-04   -1.80966e-04    5.20011e+00    2.31109e+00    5.76652e-01    5.77732e-01    5.78395e-01    5.78392e-01    1.44295e-01    1.44485e-01    1.44877e-01    1.44184e-01    2.94162e+00    9.92984e-01    7.35405e-01    5.45021e-01    7.35405e-01    2.48246e-01    1.36255e-01    1.36255e-01    2.48246e-01
    2.80000e+01    1.00000e+00   -2.55750e-04   -1.75451e-04    5.20048e+00    2.31126e+00    5.77142e-01    5.77769e-01    5.78020e-01    5.78408e-01    1.44359e-01    1.44446e-01    1.44722e-01    1.44357e-01    2.94162e+00    9.92984e-01    7.35405e-01    5.45021e-01    7.35405e-01    2.48246e-01    1.36255e-01    1.36255e-01    2.48246e-01
    2.90000e+01    1.00000e+00   -3.00243e-05   -1.62612e-04    5.20081e+00    2.31140e+00    5.77598e-01    5.77804e-01    5.77693e-01    5.78395e-01    1.44419e-01    1.44414e-01    1.44577e-01    1.44510e-01    2.94162e+00    9.92984e-01    7.35405e-01    5.45021e-01    7.35405e-01    2.48246e-01    1.36255e-01    1.36255e-01    2.48246e-01
    3.00000e+01    1.00000e+00    1.60152e-04   -1.43772e-04    5.20110e+00    2.31153e+00    5.77999e-01    5.77834e-01    5.77435e-01    5.78354e-01    1.44473e-01    1.44390e-01    1.44453e-01    1.44638e-01    2.94162e+00    9.92984e-01    7.35405e-01    5.45021e-01    7.35405e-01    2.48246e-01    1.36255e-01    1.36255e-01    2.48246e-01
    3.10000e+01    1.00000e+00    3.05349e-04   -1.19819e-04    5.20136e+00    2.31164e+00    5.78326e-01    5.77862e-01    5.77259e-01    5.78293e-01    1.44517e-01    1.44376e-01    1.44353e-01    1.44734e-01    2.94162e+00    9.92984e-01    7.35405e-01    5.45021e-01    7.35405e-01    2.48246e-01    1.36255e-01    1.36255e-01    2.48246e-01
    3.20000e+01    1.00000e+00    3.99955e-04   -9.47959e-05    5.20157e+00    2.31173e+00    5.78564e-01    5.77883e-01    5.77169e-01    5.78220e-01    1.44551e-01    1.44373e-01    1.44287e-01    1.44794e-01    2.94162e+00    9.92984e-01    7.35405e-01    5.45021e-01    7.35405e-01    2.48246e-01    1.36255e-01    1.36255e-01    2.48246e-01
    3.30000e+01    1.00000e+00    4.41481e-04   -6.68544e-05    5.20176e+00    2.31181e+00    5.78708e-01    5.77910e-01    5.77171e-01    5.78142e-01    1.44571e-01    1.44379e-01    1.44249e-01    1.44817e-01    2.94162e+00    9.92984e-01    7.35405e-01    5.45021e-01    7.35405e-01    2.48246e-01    1.36255e-01    1.36255e-01    2.48246e-01
    3.40000e+01    1.00000e+00    4.29303e-04   -4.13280e-05    5.20192e+00    2.31188e+00    5.78756e-01    5.77921e-01    5.77261e-01    5.78060e-01    1.44581e-01    1.44400e-01    1.44250e-01    1.44807e-01    2.94162e+00    9.92984e-01    7.35405e-01    5.45021e-01    7.35405e-01    2.48246e-01    1.36255e-01    1.36255e-01    2.48246e-01
    3.50000e+01    1.00000e+00    3.72007e-04   -2.02673e-05    5.20206e+00    2.31195e+00    5.78707e-01    5.77948e-01    5.77414e-01    5.78005e-01    1.44576e-01    1.44421e-01    1.44279e-01    1.44766e-01    2.94162e+00    9.92984e-01    7.35405e-01    5.45021e-01    7.35405e-01    2.48246e-01    1.36255e-01    1.36255e-01    2.48246e-01
    3.60000e+01    1.00000e+00    2.80992e-04   -1.69661e-05    5.20218e+00    2.31200e+00    5.78592e-01    5.77933e-01    5.77612e-01    5.77980e-01    1.44564e-01    1.44447e-01    1.44344e-01    1.44708e-01    2.94162e+00    9.92984e-01    7.35405e-01    5.45021e-01    7.35405e-01    2.48246e-01    1.36255e-01    1.36255e-01    2.48246e-01
    3.70000e+01    1.00000e+00    1.82372e-04   -4.49548e-06    5.20226e+00    2.31203e+00    5.78417e-01    5.77977e-01    5.77777e-01    5.77975e-01    1.44552e-01    1.44476e-01    1.44410e-01    1.44643e-01    2.94162e+00    9.92984e-01    7.35405e-01    5.45021e-01    7.35405e-01    2.48246e-01    1.36255e-01    1.36255e-01    2.48246e-01
    3.80000e+01    1.00000e+00    9.00169e-05   -3.36829e-05    5.20232e+00    2.31206e+00    5.78261e-01    5.77954e-01    5.77952e-01    5.78049e-01    1.44529e-01    1.44455e-01    1.44489e-01    1.44574e-01    2.94162e+00    9.92984e-01    7.35405e-01    5.45021e-01    7.35405e-01    2.48246e-01    1.36255e-01    1.36255e-01    2.48246e-01
    3.90000e+01    1.00000e+00    0.00000e+00    0.00000e+00    5.20238e+00    2.31209e+00    5.78105e-01    5.77967e-01    5.78105e-01    5.78041e-01    1.44501e-01    1.44536e-01    1.44501e-01    1.44536e-01    2.94162e+00    9.92984e-01    7.35405e-01    5.45021e-01    7.35405e-01    2.48246e-01    1.36255e-01    1.36255e-01    2.48246e-01
    0.00000e+00    2.00000e+00    0.00000e+00    0.00000e+00    5.19256e+00    2.30786e+00    5.76929e-01    5.76934e-01    5.76929e-01    5.76979e-01    1.44222e-01    1.44243e-01    1.44222e-01    1.44243e-01    2.94162e+00    9.92984e-01    7.35405e-01    5.45021e-01    7.35405e-01    2.48246e-01    1.36255e-01    1.36255e-01    2.48246e-01
    1.00000e+00    2.00000e+00    2.05115e-05    6.84015e-05    5.19259e+00    2.30787e+00    5.76995e-01    5.77057e-01    5.76936e-01    5.76814e-01    1.44253e-01    1.44259e-01    1.44173e-01    1.44227e-01    2.94162e+00    9.92984e-01    7.35405e-01    5.45021e-01    7.35405e-01    2.48246e-01    1.36255e-01    1.36255e-01    2.48246e-01
    2.00000e+00    2.00000e+00   -2.09696e-05    1.50488e-04    5.19257e+00    2.30786e+00    5.77013e-01    5.77112e-01    5.77084e-01    5.76583e-01    1.44281e-01    1.44303e-01    1.44174e-01    1.44158e-01    2.94162e+00    9.92984e-01    7.35405e-01    5.45021e-01    7.35405e-01    2.48246e-01    1.36255e-01    1.36255e-01    2.48246e-01
    3.00000e+00    2.00000e+00   -1.40171e-04    2.29094e-04    5.19257e+00    2.30786e+00    5.76869e-01    5.77176e-01    5.77360e-01    5.76378e-01    1.44292e-01    1.44365e-01    1.44214e-01    1.44052e-01    2.94162e+00    9.92984e-01    7.35405e-01    5.45021e-01    7.35405e-01    2.48246e-01    1.36255e-01    1.36255e-01    2.48246e-01
    4.00000e+00    2.00000e+00   -3.25287e-04    2.95062e-04    5.19259e+00    2.30787e+00    5.76614e-01    5.77232e-01    5.77738e-01    5.76206e-01    1.44273e-01    1.44444e-01    1.44302e-01    1.43908e-01    2.94162e+00    9.92984e-01    7.35405e-01    5.45021e-01    7.35405e-01    2.48246e-01    1.36255e-01    1.36255e-01    2.48246e-01
    5.00000e+00    2.00000e+00   -5.64535e-04    3.40043e-04    5.19261e+00    2.30788e+00    5.76248e-01    5.77267e-01    5.78202e-01    5.76084e-01    1.44222e-01    1.44536e-01    1.44420e-01    1.43756e-01    2.94162e+00    9.92984e-01    7.35405e-01    5.45021e-01    7.35405e-01    2.48246e-01    1.36255e-01    1.36255e-01    2.48246e-01