TITLE="LBM output"
VARIABLES = "X", "Y", "U","V","density","f0","f1","f2","f3","f4","f5","f6","f7","f8","feq0","feq1","feq2","feq3","feq4","feq5","feq6","feq7","feq8",
ZONE T = "fluid", I=40, J=40, F=POINT
SOLUTIONTIME=386
    0.00000e+00    0.00000e+00    0.00000e+00    0.00000e+00    5.03403e+00    2.23748e+00    5.59338e-01    5.59335e-01    5.59338e-01    5.59335e-01    1.39760e-01    1.39843e-01    1.39760e-01    1.39843e-01    2.82352e+00    9.53116e-01    7.05879e-01    5.23139e-01    7.05879e-01    2.38279e-01    1.30785e-01    1.30785e-01    2.38279e-01
    1.00000e+00    0.00000e+00    0.00000e+00    0.00000e+00    5.03374e+00    2.23728e+00    5.59410e-01    5.59215e-01    5.59315e-01    5.59215e-01    1.39816e-01    1.39834e-01    1.39816e-01    1.39834e-01    2.82352e+00    9.53116e-01    7.05879e-01    5.23139e-01    7.05879e-01    2.38279e-01    1.30785e-01    1.30785e-01    2.38279e-01
    2.00000e+00    0.00000e+00    0.00000e+00    0.00000e+00    5.03458e+00    2.23764e+00    5.59217e-01    5.59402e-01    5.59523e-01    5.59402e-01    1.39857e-01    1.39837e-01    1.39857e-01    1.39837e-01    2.82352e+00    9.53116e-01    7.05879e-01    5.23139e-01    7.05879e-01    2.38279e-01    1.30785e-01    1.30785e-01    2.38279e-01
    3.00000e+00    0.00000e+00    0.00000e+00    0.00000e+00    5.03562e+00    2.23812e+00    5.59583e-01    5.59384e-01    5.59547e-01    5.59384e-01    1.39919e-01    1.39882e-01    1.39919e-01    1.39882e-01    2.82352e+00    9.53116e-01    7.05879e-01    5.23139e-01    7.05879e-01    2.38279e-01    1.30785e-01    1.30785e-01    2.38279e-01
    4.00000e+00    0.00000e+00    0.00000e+00    0.00000e+00    5.03662e+00    2.23854e+00    5.59476e-01    5.59599e-01    5.59750e-01    5.59599e-01    1.40004e-01    1.39824e-01    1.40004e-01    1.39824e-01    2.82352e+00    9.53116e-01    7.05879e-01    5.23139e-01    7.05879e-01    2.38279e-01    1.30785e-01    1.30785e-01    2.38279e-01
    5.00000e+00    0.00000e+00    0.00000e+00    0.00000e+00    5.03820e+00    2.23924e+00    5.59761e-01    5.59755e-01    5.59890e-01    5.59755e-01    1.40059e-01    1.39841e-01    1.40059e-01    1.39841e-01    2.82352e+00    9.53116e-01    7.05879e-01    5.23139e-01    7.05879e-01    2.38279e-01    1.30785e-01    1.30785e-01    2.38279e-01
    6.00000e+00    0.00000e+00    0.00000e+00    0.00000e+00    5.03968e+00    2.23988e+00    5.59848e-01    5.59949e-01    5.60079e-01    5.59949e-01    1.40140e-01    1.39844e-01    1.40140e-01    1.39844e-01    2.82352e+00    9.53116e-01    7.05879e-01    5.23139e-01    7.05879e-01    2.38279e-01    1.30785e-01    1.30785e-01    2.38279e-01
    7.00000e+00    0.00000e+00    0.00000e+00    0.00000e+00    5.04141e+00    2.24064e+00    5.60062e-01    5.60143e-01    5.60266e-01    5.60143e-01    1.40218e-01    1.39861e-01    1.40218e-01    1.39861e-01    2.82352e+00    9.53116e-01    7.05879e-01    5.23139e-01    7.05879e-01    2.38279e-01    1.30785e-01    1.30785e-01    2.38279e-01
    8.00000e+00    0.00000e+00    0.00000e+00    0.00000e+00    5.04317e+00    2.24140e+00    5.60234e-01    5.60354e-01    5.60463e-01    5.60354e-01    1.40295e-01    1.39886e-01    1.40295e-01    1.39886e-01    2.82352e+00    9.53116e-01    7.05879e-01    5.23139e-01    7.05879e-01    2.38279e-01    1.30785e-01    1.30785e-01    2.38279e-01
    9.00000e+00    0.00000e+00    0.00000e+00    0.00000e+00    5.04499e+00    2.24219e+00    5.60435e-01    5.60576e-01    5.60660e-01    5.60576e-01    1.40370e-01    1.39910e-01    1.40370e-01    1.39910e-01    2.82352e+00    9.53116e-01    7.05879e-01    5.23139e-01    7.05879e-01    2.38279e-01    1.30785e-01    1.30785e-01    2.38279e-01
    1.00000e+01    0.00000e+00    0.00000e+00    0.00000e+00    5.04679e+00    2.24296e+00    5.60630e-01    5.60793e-01    5.60850e-01    5.60793e-01    1.40445e-01    1.39939e-01    1.40445e-01    1.39939e-01    2.82352e+00    9.53116e-01    7.05879e-01    5.23139e-01    7.05879e-01    2.38279e-01    1.30785e-01    1.30785e-01    2.38279e-01
    1.10000e+01    0.00000e+00    0.00000e+00    0.00000e+00    5.04852e+00    2.24370e+00    5.60819e-01    5.61005e-01    5.61027e-01    5.61005e-01    1.40518e-01    1.39968e-01    1.40518e-01    1.39968e-01    2.82352e+00    9.53116e-01    7.05879e-01    5.23139e-01    7.05879e-01    2.38279e-01    1.30785e-01    1.30785e-01    2.38279e-01
    1.20000e+01    0.00000e+00    0.00000e+00    0.00000e+00    5.05010e+00    2.24436e+00    5.60999e-01    5.61199e-01    5.61179e-01    5.61199e-01    1.40588e-01    1.39993e-01    1.40588e-01    1.39993e-01    2.82352e+00    9.53116e-01    7.05879e-01    5.23139e-01    7.05879e-01    2.38279e-01    1.30785e-01    1.30785e-01    2.38279e-01
    1.30000e+01    0.00000e+00    0.00000e+00    0.00000e+00    5.05142e+00    2.24491e+00    5.61152e-01    5.61367e-01    5.61299e-01    5.61367e-01    1.40654e-01    1.40011e-01    1.40654e-01    1.40011e-01    2.82352e+00    9.53116e-01    7.05879e-01    5.23139e-01    7.05879e-01    2.38279e-01    1.30785e-01    1.30785e-01    2.38279e-01
    1.40000e+01    0.00000e+00    0.00000e+00    0.00000e+00    5.05241e+00    2.24531e+00    5.61278e-01    5.61493e-01    5.61375e-01    5.61493e-01    1.40715e-01    1.40016e-01    1.40715e-01    1.40016e-01    2.82352e+00    9.53116e-01    7.05879e-01    5.23139e-01    7.05879e-01    2.38279e-01    1.30785e-01    1.30785e-01    2.38279e-01
    1.50000e+01    0.00000e+00    0.00000e+00    0.00000e+00    5.05299e+00    2.24554e+00    5.61359e-01    5.61570e-01    5.61404e-01    5.61570e-01    1.40771e-01    1.40006e-01    1.40771e-01    1.40006e-01    2.82352e+00    9.53116e-01    7.05879e-01    5.23139e-01    7.05879e-01    2.38279e-01    1.30785e-01    1.30785e-01    2.38279e-01
    1.60000e+01    0.00000e+00    0.00000e+00    0.00000e+00    5.05314e+00    2.24558e+00    5.61398e-01    5.61593e-01    5.61387e-01    5.61593e-01    1.40817e-01    1.39979e-01    1.40817e-01    1.39979e-01    2.82352e+00    9.53116e-01    7.05879e-01    5.23139e-01    7.05879e-01    2.38279e-01    1.30785e-01    1.30785e-01    2.38279e-01
    1.70000e+01    0.00000e+00    0.00000e+00    0.00000e+00    5.05287e+00    2.24545e+00    5.61389e-01    5.61563e-01    5.61329e-01    5.61563e-01    1.40856e-01    1.39934e-01    1.40856e-01    1.39934e-01    2.82352e+00    9.53116e-01    7.05879e-01    5.23139e-01    7.05879e-01    2.38279e-01    1.30785e-01    1.30785e-01    2.38279e-01
    1.80000e+01    0.00000e+00    0.00000e+00    0.00000e+00    5.05224e+00    2.24517e+00    5.61340e-01    5.61485e-01    5.61241e-01    5.61485e-01    1.40885e-01    1.39875e-01    1.40885e-01    1.39875e-01    2.82352e+00    9.53116e-01    7.05879e-01    5.23139e-01    7.05879e-01    2.38279e-01    1.30785e-01    1.30785e-01    2.38279e-01
    1.90000e+01    0.00000e+00    0.00000e+00    0.00000e+00    5.05136e+00    2.24480e+00    5.61258e-01    5.61373e-01    5.61137e-01    5.61373e-01    1.40903e-01    1.39806e-01    1.40903e-01    1.39806e-01    2.82352e+00    9.53116e-01    7.05879e-01    5.23139e-01    7.05879e-01    2.38279e-01    1.30785e-01    1.30785e-01    2.38279e-01
    2.00000e+01    0.00000e+00    0.00000e+00    0.00000e+00    5.05036e+00    2.24439e+00    5.61159e-01    5.61243e-01    5.61033e-01    5.61243e-01    1.40912e-01    1.39735e-01    1.40912e-01    1.39735e-01    2.82352e+00    9.53116e-01    7.05879e-01    5.23139e-01    7.05879e-01    2.38279e-01    1.30785e-01    1.30785e-01    2.38279e-01
    2.10000e+01    0.00000e+00    0.00000e+00    0.00000e+00    5.04937e+00    2.24399e+00    5.61056e-01    5.61110e-01    5.60941e-01    5.61110e-01    1.40913e-01    1.39668e-01    1.40913e-01    1.39668e-01    2.82352e+00    9.53116e-01    7.05879e-01    5.23139e-01    7.05879e-01    2.38279e-01    1.30785e-01    1.30785e-01    2.38279e-01
    2.20000e+01    0.00000e+00    0.00000e+00    0.00000e+00    5.04852e+00    2.24367e+00    5.60963e-01    5.60991e-01    5.60872e-01    5.60991e-01    1.40904e-01    1.39614e-01    1.40904e-01    1.39614e-01    2.82352e+00    9.53116e-01    7.05879e-01    5.23139e-01    7.05879e-01    2.38279e-01    1.30785e-01    1.30785e-01    2.38279e-01
    2.30000e+01    0.00000e+00    0.00000e+00    0.00000e+00    5.04789e+00    2.24344e+00    5.60892e-01    5.60896e-01    5.60833e-01    5.60896e-01    1.40888e-01    1.39577e-01    1.40888e-01    1.39577e-01    2.82352e+00    9.53116e-01    7.05879e-01    5.23139e-01    7.05879e-01    2.38279e-01    1.30785e-01    1.30785e-01    2.38279e-01
    2.40000e+01    0.00000e+00    0.00000e+00    0.00000e+00    5.04753e+00    2.24334e+00    5.60848e-01    5.60833e-01    5.60824e-01    5.60833e-01    1.40865e-01    1.39560e-01    1.40865e-01    1.39560e-01    2.82352e+00    9.53116e-01    7.05879e-01    5.23139e-01    7.05879e-01    2.38279e-01    1.30785e-01    1.30785e-01    2.38279e-01
    2.50000e+01    0.00000e+00    0.00000e+00    0.00000e+00    5.04744e+00    2.24335e+00    5.60834e-01    5.60804e-01    5.60843e-01    5.60804e-01    1.40835e-01    1.39566e-01    1.40835e-01    1.39566e-01    2.82352e+00    9.53116e-01    7.05879e-01    5.23139e-01    7.05879e-01    2.38279e-01    1.30785e-01    1.30785e-01    2.38279e-01
    2.60000e+01    0.00000e+00    0.00000e+00    0.00000e+00    5.04760e+00    2.24347e+00    5.60849e-01    5.60807e-01    5.60887e-01    5.60807e-01    1.40799e-01    1.39594e-01    1.40799e-01    1.39594e-01    2.82352e+00    9.53116e-01    7.05879e-01    5.23139e-01    7.05879e-01    2.38279e-01    1.30785e-01    1.30785e-01    2.38279e-01
    2.70000e+01    0.00000e+00    0.00000e+00    0.00000e+00    5.04796e+00    2.24366e+00    5.60887e-01    5.60836e-01    5.60944e-01    5.60836e-01    1.40758e-01    1.39642e-01    1.40758e-01    1.39642e-01    2.82352e+00    9.53116e-01    7.05879e-01    5.23139e-01    7.05879e-01    2.38279e-01    1.30785e-01    1.30785e-01    2.38279e-01
    2.80000e+01    0.00000e+00    0.00000e+00    0.00000e+00    5.04847e+00    2.24391e+00    5.60941e-01    5.60885e-01    5.61015e-01    5.60885e-01    1.40713e-01    1.39705e-01    1.40713e-01    1.39705e-01    2.82352e+00    9.53116e-01    7.05879e-01    5.23139e-01    7.05879e-01    2.38279e-01    1.30785e-01    1.30785e-01    2.38279e-01
    2.90000e+01    0.00000e+00    0.00000e+00    0.00000e+00    5.04906e+00    2.24418e+00    5.61007e-01    5.60949e-01    5.61082e-01    5.60949e-01    1.40665e-01    1.39780e-01    1.40665e-01    1.39780e-01    2.82352e+00    9.53116e-01    7.05879e-01    5.23139e-01    7.05879e-01    2.38279e-01    1.30785e-01    1.30785e-01    2.38279e-01
    3.00000e+01    0.00000e+00    0.00000e+00    0.00000e+00    5.04968e+00    2.24446e+00    5.61075e-01    5.61018e-01    5.61155e-01    5.61018e-01    1.40617e-01    1.39862e-01    1.40617e-01    1.39862e-01    2.82352e+00    9.53116e-01    7.05879e-01    5.23139e-01    7.05879e-01    2.38279e-01    1.30785e-01    1.30785e-01    2.38279e-01
    3.10000e+01    0.00000e+00    0.00000e+00    0.00000e+00    5.05029e+00    2.24472e+00    5.61144e-01    5.61093e-01    5.61215e-01    5.61093e-01    1.40567e-01    1.39946e-01    1.40567e-01    1.39946e-01    2.82352e+00    9.53116e-01    7.05879e-01    5.23139e-01    7.05879e-01    2.38279e-01    1.30785e-01    1.30785e-01    2.38279e-01
    3.20000e+01    0.00000e+00    0.00000e+00    0.00000e+00    5.05085e+00    2.24495e+00    5.61205e-01    5.61159e-01    5.61271e-01    5.61159e-01    1.40522e-01    1.40029e-01    1.40522e-01    1.40029e-01    2.82352e+00    9.53116e-01    7.05879e-01    5.23139e-01    7.05879e-01    2.38279e-01    1.30785e-01    1.30785e-01    2.38279e-01
    3.30000e+01    0.00000e+00    0.00000e+00    0.00000e+00    5.05140e+00    2.24518e+00    5.61263e-01    5.61222e-01    5.61334e-01    5.61222e-01    1.40479e-01    1.40109e-01    1.40479e-01    1.40109e-01    2.82352e+00    9.53116e-01    7.05879e-01    5.23139e-01    7.05879e-01    2.38279e-01    1.30785e-01    1.30785e-01    2.38279e-01
    3.40000e+01    0.00000e+00    0.00000e+00    0.00000e+00    5.05178e+00    2.24533e+00    5.61316e-01    5.61283e-01    5.61333e-01    5.61283e-01    1.40435e-01    1.40184e-01    1.40435e-01    1.40184e-01    2.82352e+00    9.53116e-01    7.05879e-01    5.23139e-01    7.05879e-01    2.38279e-01    1.30785e-01    1.30785e-01    2.38279e-01
    3.50000e+01    0.00000e+00    0.00000e+00    0.00000e+00    5.05225e+00    2.24553e+00    5.61344e-01    5.61326e-01    5.61444e-01    5.61326e-01    1.40402e-01    1.40237e-01    1.40402e-01    1.40237e-01    2.82352e+00    9.53116e-01    7.05879e-01    5.23139e-01    7.05879e-01    2.38279e-01    1.30785e-01    1.30785e-01    2.38279e-01
    3.60000e+01    0.00000e+00    0.00000e+00    0.00000e+00    5.05258e+00    2.24565e+00    5.61411e-01    5.61402e-01    5.61387e-01    5.61402e-01    1.40364e-01    1.40299e-01    1.40364e-01    1.40299e-01    2.82352e+00    9.53116e-01    7.05879e-01    5.23139e-01    7.05879e-01    2.38279e-01    1.30785e-01    1.30785e-01    2.38279e-01
    3.70000e+01    0.00000e+00    0.00000e+00    0.00000e+00    5.05272e+00    2.24572e+00    5.61409e-01    5.61367e-01    5.61463e-01    5.61367e-01    1.40359e-01    1.40340e-01    1.40359e-01    1.40340e-01    2.82352e+00    9.53116e-01    7.05879e-01    5.23139e-01    7.05879e-01    2.38279e-01    1.30785e-01    1.30785e-01    2.38279e-01
    3.80000e+01    0.00000e+00    0.00000e+00    0.00000e+00    5.05310e+00    2.24589e+00    5.61453e-01    5.61415e-01    5.61505e-01    5.61415e-01    1.40362e-01    1.40351e-01    1.40362e-01    1.40351e-01    2.82352e+00    9.53116e-01    7.05879e-01    5.23139e-01    7.05879e-01    2.38279e-01    1.30785e-01    1.30785e-01    2.38279e-01
    3.90000e+01    0.00000e+00    0.00000e+00    0.00000e+00    5.05339e+00    2.24599e+00    5.61482e-01    5.61484e-01    5.61482e-01    5.61484e-01    1.40374e-01    1.40357e-01    1.40374e-01    1.40357e-01    2.82352e+00    9.53116e-01    7.05879e-01    5.23139e-01    7.05879e-01    2.38279e-01    1.30785e-01    1.30785e-01    2.38279e-01
    0.00000e+00    1.00000e+00    0.00000e+00    0.00000e+00    5.03375e+00    2.23729e+00    5.59197e-01    5.59413e-01    5.59197e-01    5.59321e-01    1.39840e-01    1.39827e-01    1.39840e-01    1.39827e-01    2.82352e+00    9.53116e-01    7.05879e-01    5.23139e-01    7.05879e-01    2.38279e-01    1.30785e-01    1.30785e-01    2.38279e-01
    1.00000e+00    1.00000e+00    8.10352e-05    8.70748e-05    5.03424e+00    2.23751e+00    5.59464e-01    5.59446e-01    5.59229e-01    5.59183e-01    1.39933e-01    1.39858e-01    1.39759e-01    1.39857e-01    2.82352e+00    9.53116e-01    7.05879e-01    5.23139e-01    7.05879e-01    2.38279e-01    1.30785e-01    1.30785e-01    2.38279e-01
    2.00000e+00    1.00000e+00    1.81504e-05    8.42974e-05    5.03495e+00    2.23782e+00    5.59642e-01    5.59443e-01    5.59565e-01    5.59155e-01    1.39866e-01    1.39866e-01    1.39790e-01    1.39805e-01    2.82352e+00    9.53116e-01    7.05879e-01    5.23139e-01    7.05879e-01    2.38279e-01    1.30785e-01    1.30785e-01    2.38279e-01
    3.00000e+00    1.00000e+00   -9.89705e-05    1.24059e-04    5.03584e+00    2.23820e+00    5.59454e-01    5.59676e-01    5.59787e-01    5.59242e-01    1.39875e-01    1.39959e-01    1.39862e-01    1.39780e-01    2.82352e+00    9.53116e-01    7.05879e-01    5.23139e-01    7.05879e-01    2.38279e-01    1.30785e-01    1.30785e-01    2.38279e-01
    4.00000e+00    1.00000e+00   -1.97978e-04    9.70435e-05    5.03699e+00    2.23871e+00    5.59457e-01    5.59690e-01    5.60127e-01    5.59364e-01    1.39886e-01    1.40017e-01    1.39968e-01    1.39772e-01    2.82352e+00    9.53116e-01    7.05879e-01    5.23139e-01    7.05879e-01    2.38279e-01    1.30785e-01    1.30785e-01    2.38279e-01
    5.00000e+00    1.00000e+00   -3.10550e-04    8.53676e-05    5.03841e+00    2.23933e+00    5.59402e-01    5.59876e-01    5.60453e-01    5.59569e-01    1.39868e-01    1.40083e-01    1.40063e-01    1.39764e-01    2.82352e+00    9.53116e-01    7.05879e-01    5.23139e-01    7.05879e-01    2.38279e-01    1.30785e-01    1.30785e-01    2.38279e-01
    6.00000e+00    1.00000e+00   -4.22559e-04    8.17818e-05    5.03995e+00    2.24000e+00    5.59400e-01    5.60009e-01    5.60829e-01    5.59720e-01    1.39906e-01    1.40151e-01    1.40194e-01    1.39739e-01    2.82352e+00    9.53116e-01    7.05879e-01    5.23139e-01    7.05879e-01    2.38279e-01    1.30785e-01    1.30785e-01    2.38279e-01
    7.00000e+00    1.00000e+00   -5.43625e-04    6.64337e-05    5.04162e+00    2.24072e+00    5.59378e-01    5.60189e-01    5.61211e-01    5.59949e-01    1.39915e-01    1.40215e-01    1.40321e-01    1.39713e-01    2.82352e+00    9.53116e-01    7.05879e-01    5.23139e-01    7.05879e-01    2.38279e-01    1.30785e-01    1.30785e-01    2.38279e-01
    8.00000e+00    1.00000e+00   -6.61187e-04    4.81358e-05    5.04337e+00    2.24148e+00    5.59364e-01    5.60361e-01    5.61596e-01    5.60184e-01    1.39940e-01    1.40282e-01    1.40458e-01    1.39698e-01    2.82352e+00    9.53116e-01    7.05879e-01    5.23139e-01    7.05879e-01    2.38279e-01    1.30785e-01    1.30785e-01    2.38279e-01
    9.00000e+00    1.00000e+00   -7.76816e-04    2.66864e-05    5.04516e+00    2.24226e+00    5.59365e-01    5.60536e-01    5.61985e-01    5.60428e-01    1.39965e-01    1.40345e-01    1.40601e-01    1.39682e-01    2.82352e+00    9.53116e-01    7.05879e-01    5.23139e-01    7.05879e-01    2.38279e-01    1.30785e-01    1.30785e-01    2.38279e-01
    1.00000e+01    1.00000e+00   -8.93262e-04    4.59613e-06    5.04694e+00    2.24302e+00    5.59361e-01    5.60707e-01    5.62373e-01    5.60673e-01    1.39993e-01    1.40405e-01    1.40747e-01    1.39662e-01    2.82352e+00    9.53116e-01    7.05879e-01    5.23139e-01    7.05879e-01    2.38279e-01    1.30785e-01    1.30785e-01    2.38279e-01
    1.10000e+01    1.00000e+00   -1.01154e-03   -2.04380e-05    5.04863e+00    2.24374e+00    5.59345e-01    5.60865e-01    5.62756e-01    5.60914e-01    1.40019e-01    1.40461e-01    1.40895e-01    1.39640e-01    2.82352e+00    9.53116e-01    7.05879e-01    5.23139e-01    7.05879e-01    2.38279e-01    1.30785e-01    1.30785e-01    2.38279e-01
    1.20000e+01    1.00000e+00   -1.13370e-03   -4.59630e-05    5.05017e+00    2.24439e+00    5.59307e-01    5.61006e-01    5.63129e-01    5.61137e-01    1.40040e-01    1.40512e-01    1.41041e-01    1.39611e-01    2.82352e+00    9.53116e-01    7.05879e-01    5.23139e-01    7.05879e-01    2.38279e-01    1.30785e-01    1.30785e-01    2.38279e-01
    1.30000e+01    1.00000e+00   -1.26232e-03   -7.10989e-05    5.05146e+00    2.24492e+00    5.59232e-01    5.61116e-01    5.63489e-01    5.61330e-01    1.40053e-01    1.40559e-01    1.41185e-01    1.39572e-01    2.82352e+00    9.53116e-01    7.05879e-01    5.23139e-01    7.05879e-01    2.38279e-01    1.30785e-01    1.30785e-01    2.38279e-01
    1.40000e+01    1.00000e+00   -1.39913e-03   -9.32976e-05    5.05242e+00    2.24531e+00    5.59108e-01    5.61195e-01    5.63827e-01    5.61480e-01    1.40054e-01    1.40600e-01    1.41322e-01    1.39518e-01    2.82352e+00    9.53116e-01    7.05879e-01    5.23139e-01    7.05879e-01    2.38279e-01    1.30785e-01    1.30785e-01    2.38279e-01
    1.50000e+01    1.00000e+00   -1.54440e-03   -1.12150e-04    5.05298e+00    2.24553e+00    5.58926e-01    5.61234e-01    5.64137e-01    5.61581e-01    1.40041e-01    1.40636e-01    1.41448e-01    1.39449e-01    2.82352e+00    9.53116e-01    7.05879e-01    5.23139e-01    7.05879e-01    2.38279e-01    1.30785e-01    1.30785e-01    2.38279e-01
    1.60000e+01    1.00000e+00   -1.69661e-03   -1.25110e-04    5.05312e+00    2.24557e+00    5.58684e-01    5.61234e-01    5.64411e-01    5.61624e-01    1.40013e-01    1.40666e-01    1.41558e-01    1.39364e-01    2.82352e+00    9.53116e-01    7.05879e-01    5.23139e-01    7.05879e-01    2.38279e-01    1.30785e-01    1.30785e-01    2.38279e-01
    1.70000e+01    1.00000e+00   -1.85156e-03   -1.31015e-04    5.05286e+00    2.24544e+00    5.58390e-01    5.61200e-01    5.64643e-01    5.61609e-01    1.39971e-01    1.40691e-01    1.41649e-01    1.39267e-01    2.82352e+00    9.53116e-01    7.05879e-01    5.23139e-01    7.05879e-01    2.38279e-01    1.30785e-01    1.30785e-01    2.38279e-01
    1.80000e+01    1.00000e+00   -2.00283e-03   -1.29735e-04    5.05225e+00    2.24517e+00    5.58060e-01    5.61140e-01    5.64827e-01    5.61546e-01    1.39918e-01    1.40710e-01    1.41719e-01    1.39160e-01    2.82352e+00    9.53116e-01    7.05879e-01    5.23139e-01    7.05879e-01    2.38279e-01    1.30785e-01    1.30785e-01    2.38279e-01
    1.90000e+01    1.00000e+00   -2.14229e-03   -1.21971e-04    5.05139e+00    2.24481e+00    5.57717e-01    5.61065e-01    5.64959e-01    5.61447e-01    1.39859e-01    1.40725e-01    1.41766e-01    1.39052e-01    2.82352e+00    9.53116e-01    7.05879e-01    5.23139e-01    7.05879e-01    2.38279e-01    1.30785e-01    1.30785e-01    2.38279e-01
    2.00000e+01    1.00000e+00   -2.26075e-03   -1.07862e-04    5.05041e+00    2.24440e+00    5.57391e-01    5.60987e-01    5.65035e-01    5.61325e-01    1.39799e-01    1.40735e-01    1.41789e-01    1.38951e-01    2.82352e+00    9.53116e-01    7.05879e-01    5.23139e-01    7.05879e-01    2.38279e-01    1.30785e-01    1.30785e-01    2.38279e-01
    2.10000e+01    1.00000e+00   -2.34930e-03   -8.98217e-05    5.04944e+00    2.24401e+00    5.57111e-01    5.60917e-01    5.65057e-01    5.61200e-01    1.39746e-01    1.40740e-01    1.41790e-01    1.38867e-01    2.82352e+00    9.53116e-01    7.05879e-01    5.23139e-01    7.05879e-01    2.38279e-01    1.30785e-01    1.30785e-01    2.38279e-01
    2.20000e+01    1.00000e+00   -2.40049e-03   -7.02461e-05    5.04858e+00    2.24368e+00    5.56903e-01    5.60866e-01    5.65024e-01    5.61089e-01    1.39704e-01    1.40740e-01    1.41769e-01    1.38807e-01    2.82352e+00    9.53116e-01    7.05879e-01    5.23139e-01    7.05879e-01    2.38279e-01    1.30785e-01    1.30785e-01    2.38279e-01
    2.30000e+01    1.00000e+00   -2.40890e-03   -5.03431e-05    5.04793e+00    2.24345e+00    5.56787e-01    5.60839e-01    5.64937e-01    5.61002e-01    1.39679e-01    1.40735e-01    1.41729e-01    1.38776e-01    2.82352e+00    9.53116e-01    7.05879e-01    5.23139e-01    7.05879e-01    2.38279e-01    1.30785e-01    1.30785e-01    2.38279e-01
    2.40000e+01    1.00000e+00   -2.37188e-03   -3.16722e-05    5.04753e+00    2.24332e+00    5.56775e-01    5.60839e-01    5.64800e-01    5.60945e-01    1.39672e-01    1.40726e-01    1.41672e-01    1.38779e-01    2.82352e+00    9.53116e-01    7.05879e-01    5.23139e-01    7.05879e-01    2.38279e-01    1.30785e-01    1.30785e-01    2.38279e-01
    2.50000e+01    1.00000e+00   -2.28983e-03   -1.66425e-05    5.04739e+00    2.24331e+00    5.56868e-01    5.60863e-01    5.64617e-01    5.60925e-01    1.39683e-01    1.40710e-01    1.41598e-01    1.38816e-01    2.82352e+00    9.53116e-01    7.05879e-01    5.23139e-01    7.05879e-01    2.38279e-01    1.30785e-01    1.30785e-01    2.38279e-01
    2.60000e+01    1.00000e+00   -2.16564e-03   -5.37815e-06    5.04750e+00    2.24341e+00    5.57063e-01    5.60908e-01    5.64391e-01    5.60938e-01    1.39712e-01    1.40688e-01    1.41512e-01    1.38884e-01    2.82352e+00    9.53116e-01    7.05879e-01    5.23139e-01    7.05879e-01    2.38279e-01    1.30785e-01    1.30785e-01    2.38279e-01
    2.70000e+01    1.00000e+00   -2.00456e-03    1.92949e-06    5.04781e+00    2.24358e+00    5.57345e-01    5.60967e-01    5.64128e-01    5.60978e-01    1.39758e-01    1.40661e-01    1.41415e-01    1.38982e-01    2.82352e+00    9.53116e-01    7.05879e-01    5.23139e-01    7.05879e-01    2.38279e-01    1.30785e-01    1.30785e-01    2.38279e-01
    2.80000e+01    1.00000e+00   -1.81370e-03    4.91164e-06    5.04827e+00    2.24381e+00    5.57700e-01    5.61035e-01    5.63836e-01    5.61040e-01    1.39814e-01    1.40629e-01    1.41309e-01    1.39104e-01    2.82352e+00    9.53116e-01    7.05879e-01    5.23139e-01    7.05879e-01    2.38279e-01    1.30785e-01    1.30785e-01    2.38279e-01
    2.90000e+01    1.00000e+00   -1.60107e-03    3.42110e-06    5.04883e+00    2.24407e+00    5.58107e-01    5.61103e-01    5.63522e-01    5.61117e-01    1.39879e-01    1.40593e-01    1.41197e-01    1.39243e-01    2.82352e+00    9.53116e-01    7.05879e-01    5.23139e-01    7.05879e-01    2.38279e-01    1.30785e-01    1.30785e-01    2.38279e-01
    3.00000e+01    1.00000e+00   -1.37490e-03   -2.11459e-07    5.04943e+00    2.24434e+00    5.58546e-01    5.61171e-01    5.63196e-01    5.61200e-01    1.39948e-01    1.40554e-01    1.41081e-01    1.39394e-01    2.82352e+00    9.53116e-01    7.05879e-01    5.23139e-01    7.05879e-01    2.38279e-01    1.30785e-01    1.30785e-01    2.38279e-01
    3.10000e+01    1.00000e+00   -1.14450e-03   -7.09661e-06    5.05003e+00    2.24460e+00    5.59001e-01    5.61229e-01    5.62871e-01    5.61281e-01    1.40018e-01    1.40515e-01    1.40965e-01    1.39552e-01    2.82352e+00    9.53116e-01    7.05879e-01    5.23139e-01    7.05879e-01    2.38279e-01    1.30785e-01    1.30785e-01    2.38279e-01
    3.20000e+01    1.00000e+00   -9.16201e-04   -1.37054e-05    5.05060e+00    2.24484e+00    5.59451e-01    5.61283e-01    5.62545e-01    5.61358e-01    1.40086e-01    1.40478e-01    1.40850e-01    1.39709e-01    2.82352e+00    9.53116e-01    7.05879e-01    5.23139e-01    7.05879e-01    2.38279e-01    1.30785e-01    1.30785e-01    2.38279e-01
    3.30000e+01    1.00000e+00   -6.96486e-04   -2.05365e-05    5.05113e+00    2.24506e+00    5.59889e-01    5.61333e-01    5.62242e-01    5.61428e-01    1.40148e-01    1.40437e-01    1.40735e-01    1.39859e-01    2.82352e+00    9.53116e-01    7.05879e-01    5.23139e-01    7.05879e-01    2.38279e-01    1.30785e-01    1.30785e-01    2.38279e-01
    3.40000e+01    1.00000e+00   -4.98405e-04   -2.08743e-05    5.05160e+00    2.24525e+00    5.60298e-01    5.61357e-01    5.61983e-01    5.61456e-01    1.40206e-01    1.40419e-01    1.40626e-01    1.40005e-01    2.82352e+00    9.53116e-01    7.05879e-01    5.23139e-01    7.05879e-01    2.38279e-01    1.30785e-01    1.30785e-01    2.38279e-01
    3.50000e+01    1.00000e+00   -3.19040e-04   -2.21376e-05    5.05203e+00    2.24543e+00    5.60654e-01    5.61412e-01    5.61727e-01    5.61505e-01    1.40258e-01    1.40384e-01    1.40537e-01    1.40125e-01    2.82352e+00    9.53116e-01    7.05879e-01    5.23139e-01    7.05879e-01    2.38279e-01    1.30785e-01    1.30785e-01    2.38279e-01
    3.60000e+01    1.00000e+00   -1.67640e-04   -2.38368e-05    5.05236e+00    2.24556e+00    5.60989e-01    5.61404e-01    5.61554e-01    5.61495e-01    1.40303e-01    1.40362e-01    1.40459e-01    1.40236e-01    2.82352e+00    9.53116e-01    7.05879e-01    5.23139e-01    7.05879e-01    2.38279e-01    1.30785e-01    1.30785e-01    2.38279e-01
    3.70000e+01    1.00000e+00   -5.36582e-05    1.45616e-05    5.05263e+00    2.24567e+00    5.61229e-01    5.61470e-01    5.61417e-01    5.61444e-01    1.40351e-01    1.40372e-01    1.40369e-01    1.40308e-01    2.82352e+00    9.53116e-01    7.05879e-01    5.23139e-01    7.05879e-01    2.38279e-01    1.30785e-01    1.30785e-01    2.38279e-01
    3.80000e+01    1.00000e+00   -4.98283e-06    4.95906e-05    5.05292e+00    2.24580e+00    5.61441e-01    5.61501e-01    5.61459e-01    5.61333e-01    1.40359e-01    1.40376e-01    1.40321e-01    1.40331e-01    2.82352e+00    9.53116e-01    7.05879e-01    5.23139e-01    7.05879e-01    2.38279e-01    1.30785e-01    1.30785e-01    2.38279e-01
    3.90000e+01    1.00000e+00    0.00000e+00    0.00000e+00    5.05311e+00    2.24589e+00    5.61467e-01    5.61501e-01    5.61467e-01    5.61455e-01    1.40375e-01    1.40291e-01    1.40375e-01    1.40291e-01    2.82352e+00    9.53116e-01    7.05879e-01    5.23139e-01    7.05879e-01    2.38279e-01    1.30785e-01    1.30785e-01    2.38279e-01
    0.00000e+00    2.00000e+00    0.00000e+00    0.00000e+00    5.03473e+00    2.23772e+00    5.59413e-01    5.59218e-01    5.59413e-01    5.59554e-01    1.39860e-01    1.39847e-01    1.39860e-01    1.39847e-01    2.82352e+00    9.53116e-01    7.05879e-01    5.23139e-01    7.05879e-01    2.38279e-01    1.30785e-01    1.30785e-01    2.38279e-01
    1.00000e+00    2.00000e+00    2.17393e-05    1.10863e-04    5.03506e+00    2.23787e+00    5.59467e-01    5.59679e-01    5.59408e-01    5.59290e-01    1.39847e-01    1.39910e-01    1.39737e-01    1.39851e-01    2.82352e+00    9.53116e-01    7.05879e-01    5.23139e-01    7.05879e-01    2.38279e-01    1.30785e-01    1.30785e-01    2.38279e-01
    2.00000e+00    2.00000e+00   -2.43372e-05    2.44840e-04    5.03562e+00    2.23811e+00    5.59610e-01    5.59803e-01    5.59678e-01    5.58959e-01    1.39937e-01    1.39988e-01    1.39770e-01    1.39766e-01    2.82352e+00    9.53116e-01    7.05879e-01    5.23139e-01    7.05879e-01    2.38279e-01    1.30785e-01    1.30785e-01    2.38279e-01
    3.00000e+00    2.00000e+00   -1.62767e-04    2.70361e-04    5.03651e+00    2.23850e+00    5.59488e-01    5.59894e-01    5.60044e-01    5.58986e-01    1.39986e-01    1.40043e-01    1.39890e-01    1.39684e-01    2.82352e+00    9.53116e-01    7.05879e-01    5.23139e-01    7.05879e-01    2.38279e-01    1.30785e-01    1.30785e-01    2.38279e-01
    4.00000e+00    2.00000e+00   -3.22735e-04    2.77605e-04    5.03770e+00    2.23902e+00    5.59373e-01    5.60027e-01    5.60451e-01    5.59100e-01    1.39971e-01    1.40129e-01    1.40010e-01    1.39619e-01    2.82352e+00    9.53116e-01    7.05879e-01    5.23139e-01    7.05879e-01    2.38279e-01    1.30785e-01    1.30785e-01    2.38279e-01
    5.00000e+00    2.00000e+00   -5.14097e-04    2.61582e-04    5.03900e+00    2.23958e+00    5.59241e-01    5.60115e-01    5.60955e-01    5.59231e-01    1.39926e-01    1.40227e-01    1.40148e-01    1.39571e-01    2.82352e+00    9.53116e-01    7.05879e-01    5.23139e-01    7.05879e-01    2.38279e-01    1.30785e-01    1.30785e-01    2.38279e-01