TITLE="LBM output"
VARIABLES = "X", "Y", "U","V","density","f0","f1","f2","f3","f4","f5","f6","f7","f8","feq0","feq1","feq2","feq3","feq4","feq5","feq6","feq7","feq8",
ZONE T = "fluid", I=40, J=40, F=POINT
SOLUTIONTIME=197
    0.00000e+00    0.00000e+00    0.00000e+00    0.00000e+00    4.97857e+00    2.21281e+00    5.53171e-01    5.53170e-01    5.53171e-01    5.53170e-01    1.38234e-01    1.38301e-01    1.38234e-01    1.38301e-01    2.82364e+00    9.53157e-01    7.05910e-01    5.23162e-01    7.05910e-01    2.38289e-01    1.30790e-01    1.30790e-01    2.38289e-01
    1.00000e+00    0.00000e+00    0.00000e+00    0.00000e+00    4.97810e+00    2.21262e+00    5.53228e-01    5.53030e-01    5.53131e-01    5.53030e-01    1.38245e-01    1.38288e-01    1.38245e-01    1.38288e-01    2.82364e+00    9.53157e-01    7.05910e-01    5.23162e-01    7.05910e-01    2.38289e-01    1.30790e-01    1.30790e-01    2.38289e-01
    2.00000e+00    0.00000e+00    0.00000e+00    0.00000e+00    4.97800e+00    2.21257e+00    5.53101e-01    5.53045e-01    5.53161e-01    5.53045e-01    1.38270e-01    1.38265e-01    1.38270e-01    1.38265e-01    2.82364e+00    9.53157e-01    7.05910e-01    5.23162e-01    7.05910e-01    2.38289e-01    1.30790e-01    1.30790e-01    2.38289e-01
    3.00000e+00    0.00000e+00    0.00000e+00    0.00000e+00    4.97816e+00    2.21264e+00    5.53175e-01    5.53032e-01    5.53159e-01    5.53032e-01    1.38307e-01    1.38254e-01    1.38307e-01    1.38254e-01    2.82364e+00    9.53157e-01    7.05910e-01    5.23162e-01    7.05910e-01    2.38289e-01    1.30790e-01    1.30790e-01    2.38289e-01
    4.00000e+00    0.00000e+00    0.00000e+00    0.00000e+00    4.97831e+00    2.21269e+00    5.53147e-01    5.53072e-01    5.53196e-01    5.53072e-01    1.38359e-01    1.38206e-01    1.38359e-01    1.38206e-01    2.82364e+00    9.53157e-01    7.05910e-01    5.23162e-01    7.05910e-01    2.38289e-01    1.30790e-01    1.30790e-01    2.38289e-01
    5.00000e+00    0.00000e+00    0.00000e+00    0.00000e+00    4.97870e+00    2.21284e+00    5.53191e-01    5.53123e-01    5.53237e-01    5.53123e-01    1.38417e-01    1.38178e-01    1.38417e-01    1.38178e-01    2.82364e+00    9.53157e-01    7.05910e-01    5.23162e-01    7.05910e-01    2.38289e-01    1.30790e-01    1.30790e-01    2.38289e-01
    6.00000e+00    0.00000e+00    0.00000e+00    0.00000e+00    4.97931e+00    2.21307e+00    5.53218e-01    5.53208e-01    5.53315e-01    5.53208e-01    1.38497e-01    1.38147e-01    1.38497e-01    1.38147e-01    2.82364e+00    9.53157e-01    7.05910e-01    5.23162e-01    7.05910e-01    2.38289e-01    1.30790e-01    1.30790e-01    2.38289e-01
    7.00000e+00    0.00000e+00    0.00000e+00    0.00000e+00    4.98024e+00    2.21343e+00    5.53298e-01    5.53324e-01    5.53425e-01    5.53324e-01    1.38600e-01    1.38119e-01    1.38600e-01    1.38119e-01    2.82364e+00    9.53157e-01    7.05910e-01    5.23162e-01    7.05910e-01    2.38289e-01    1.30790e-01    1.30790e-01    2.38289e-01
    8.00000e+00    0.00000e+00    0.00000e+00    0.00000e+00    4.98162e+00    2.21398e+00    5.53395e-01    5.53501e-01    5.53598e-01    5.53501e-01    1.38734e-01    1.38089e-01    1.38734e-01    1.38089e-01    2.82364e+00    9.53157e-01    7.05910e-01    5.23162e-01    7.05910e-01    2.38289e-01    1.30790e-01    1.30790e-01    2.38289e-01
    9.00000e+00    0.00000e+00    0.00000e+00    0.00000e+00    4.98362e+00    2.21479e+00    5.53559e-01    5.53751e-01    5.53842e-01    5.53751e-01    1.38902e-01    1.38061e-01    1.38902e-01    1.38061e-01    2.82364e+00    9.53157e-01    7.05910e-01    5.23162e-01    7.05910e-01    2.38289e-01    1.30790e-01    1.30790e-01    2.38289e-01
    1.00000e+01    0.00000e+00    0.00000e+00    0.00000e+00    4.98635e+00    2.21591e+00    5.53788e-01    5.54091e-01    5.54174e-01    5.54091e-01    1.39113e-01    1.38036e-01    1.39113e-01    1.38036e-01    2.82364e+00    9.53157e-01    7.05910e-01    5.23162e-01    7.05910e-01    2.38289e-01    1.30790e-01    1.30790e-01    2.38289e-01
    1.10000e+01    0.00000e+00    0.00000e+00    0.00000e+00    4.98991e+00    2.21739e+00    5.54107e-01    5.54526e-01    5.54596e-01    5.54526e-01    1.39367e-01    1.38016e-01    1.39367e-01    1.38016e-01    2.82364e+00    9.53157e-01    7.05910e-01    5.23162e-01    7.05910e-01    2.38289e-01    1.30790e-01    1.30790e-01    2.38289e-01
    1.20000e+01    0.00000e+00    0.00000e+00    0.00000e+00    4.99424e+00    2.21922e+00    5.54516e-01    5.55048e-01    5.55097e-01    5.55048e-01    1.39655e-01    1.38000e-01    1.39655e-01    1.38000e-01    2.82364e+00    9.53157e-01    7.05910e-01    5.23162e-01    7.05910e-01    2.38289e-01    1.30790e-01    1.30790e-01    2.38289e-01
    1.30000e+01    0.00000e+00    0.00000e+00    0.00000e+00    4.99917e+00    2.22134e+00    5.55012e-01    5.55633e-01    5.55655e-01    5.55633e-01    1.39963e-01    1.37987e-01    1.39963e-01    1.37987e-01    2.82364e+00    9.53157e-01    7.05910e-01    5.23162e-01    7.05910e-01    2.38289e-01    1.30790e-01    1.30790e-01    2.38289e-01
    1.40000e+01    0.00000e+00    0.00000e+00    0.00000e+00    5.00442e+00    2.22364e+00    5.55572e-01    5.56240e-01    5.56238e-01    5.56240e-01    1.40271e-01    1.37974e-01    1.40271e-01    1.37974e-01    2.82364e+00    9.53157e-01    7.05910e-01    5.23162e-01    7.05910e-01    2.38289e-01    1.30790e-01    1.30790e-01    2.38289e-01
    1.50000e+01    0.00000e+00    0.00000e+00    0.00000e+00    5.00962e+00    2.22597e+00    5.56167e-01    5.56825e-01    5.56807e-01    5.56825e-01    1.40553e-01    1.37962e-01    1.40553e-01    1.37962e-01    2.82364e+00    9.53157e-01    7.05910e-01    5.23162e-01    7.05910e-01    2.38289e-01    1.30790e-01    1.30790e-01    2.38289e-01
    1.60000e+01    0.00000e+00    0.00000e+00    0.00000e+00    5.01445e+00    2.22818e+00    5.56753e-01    5.57348e-01    5.57329e-01    5.57348e-01    1.40784e-01    1.37957e-01    1.40784e-01    1.37957e-01    2.82364e+00    9.53157e-01    7.05910e-01    5.23162e-01    7.05910e-01    2.38289e-01    1.30790e-01    1.30790e-01    2.38289e-01
    1.70000e+01    0.00000e+00    0.00000e+00    0.00000e+00    5.01862e+00    2.23015e+00    5.57294e-01    5.57781e-01    5.57774e-01    5.57781e-01    1.40955e-01    1.37963e-01    1.40955e-01    1.37963e-01    2.82364e+00    9.53157e-01    7.05910e-01    5.23162e-01    7.05910e-01    2.38289e-01    1.30790e-01    1.30790e-01    2.38289e-01
    1.80000e+01    0.00000e+00    0.00000e+00    0.00000e+00    5.02199e+00    2.23178e+00    5.57755e-01    5.58116e-01    5.58129e-01    5.58116e-01    1.41062e-01    1.37987e-01    1.41062e-01    1.37987e-01    2.82364e+00    9.53157e-01    7.05910e-01    5.23162e-01    7.05910e-01    2.38289e-01    1.30790e-01    1.30790e-01    2.38289e-01
    1.90000e+01    0.00000e+00    0.00000e+00    0.00000e+00    5.02457e+00    2.23304e+00    5.58121e-01    5.58359e-01    5.58399e-01    5.58359e-01    1.41111e-01    1.38031e-01    1.41111e-01    1.38031e-01    2.82364e+00    9.53157e-01    7.05910e-01    5.23162e-01    7.05910e-01    2.38289e-01    1.30790e-01    1.30790e-01    2.38289e-01
    2.00000e+01    0.00000e+00    0.00000e+00    0.00000e+00    5.02648e+00    2.23399e+00    5.58396e-01    5.58532e-01    5.58601e-01    5.58532e-01    1.41117e-01    1.38097e-01    1.41117e-01    1.38097e-01    2.82364e+00    9.53157e-01    7.05910e-01    5.23162e-01    7.05910e-01    2.38289e-01    1.30790e-01    1.30790e-01    2.38289e-01
    2.10000e+01    0.00000e+00    0.00000e+00    0.00000e+00    5.02795e+00    2.23472e+00    5.58600e-01    5.58660e-01    5.58763e-01    5.58660e-01    1.41093e-01    1.38180e-01    1.41093e-01    1.38180e-01    2.82364e+00    9.53157e-01    7.05910e-01    5.23162e-01    7.05910e-01    2.38289e-01    1.30790e-01    1.30790e-01    2.38289e-01
    2.20000e+01    0.00000e+00    0.00000e+00    0.00000e+00    5.02922e+00    2.23535e+00    5.58761e-01    5.58769e-01    5.58913e-01    5.58769e-01    1.41050e-01    1.38278e-01    1.41050e-01    1.38278e-01    2.82364e+00    9.53157e-01    7.05910e-01    5.23162e-01    7.05910e-01    2.38289e-01    1.30790e-01    1.30790e-01    2.38289e-01
    2.30000e+01    0.00000e+00    0.00000e+00    0.00000e+00    5.03047e+00    2.23596e+00    5.58909e-01    5.58880e-01    5.59074e-01    5.58880e-01    1.40993e-01    1.38390e-01    1.40993e-01    1.38390e-01    2.82364e+00    9.53157e-01    7.05910e-01    5.23162e-01    7.05910e-01    2.38289e-01    1.30790e-01    1.30790e-01    2.38289e-01
    2.40000e+01    0.00000e+00    0.00000e+00    0.00000e+00    5.03187e+00    2.23664e+00    5.59068e-01    5.59008e-01    5.59255e-01    5.59008e-01    1.40927e-01    1.38516e-01    1.40927e-01    1.38516e-01    2.82364e+00    9.53157e-01    7.05910e-01    5.23162e-01    7.05910e-01    2.38289e-01    1.30790e-01    1.30790e-01    2.38289e-01
    2.50000e+01    0.00000e+00    0.00000e+00    0.00000e+00    5.03345e+00    2.23740e+00    5.59245e-01    5.59163e-01    5.59459e-01    5.59163e-01    1.40855e-01    1.38657e-01    1.40855e-01    1.38657e-01    2.82364e+00    9.53157e-01    7.05910e-01    5.23162e-01    7.05910e-01    2.38289e-01    1.30790e-01    1.30790e-01    2.38289e-01
    2.60000e+01    0.00000e+00    0.00000e+00    0.00000e+00    5.03524e+00    2.23824e+00    5.59443e-01    5.59347e-01    5.59680e-01    5.59347e-01    1.40779e-01    1.38817e-01    1.40779e-01    1.38817e-01    2.82364e+00    9.53157e-01    7.05910e-01    5.23162e-01    7.05910e-01    2.38289e-01    1.30790e-01    1.30790e-01    2.38289e-01
    2.70000e+01    0.00000e+00    0.00000e+00    0.00000e+00    5.03719e+00    2.23912e+00    5.59656e-01    5.59560e-01    5.59907e-01    5.59560e-01    1.40707e-01    1.38991e-01    1.40707e-01    1.38991e-01    2.82364e+00    9.53157e-01    7.05910e-01    5.23162e-01    7.05910e-01    2.38289e-01    1.30790e-01    1.30790e-01    2.38289e-01
    2.80000e+01    0.00000e+00    0.00000e+00    0.00000e+00    5.03923e+00    2.24001e+00    5.59876e-01    5.59794e-01    5.60132e-01    5.59794e-01    1.40639e-01    1.39175e-01    1.40639e-01    1.39175e-01    2.82364e+00    9.53157e-01    7.05910e-01    5.23162e-01    7.05910e-01    2.38289e-01    1.30790e-01    1.30790e-01    2.38289e-01
    2.90000e+01    0.00000e+00    0.00000e+00    0.00000e+00    5.04124e+00    2.24086e+00    5.60095e-01    5.60035e-01    5.60336e-01    5.60035e-01    1.40579e-01    1.39359e-01    1.40579e-01    1.39359e-01    2.82364e+00    9.53157e-01    7.05910e-01    5.23162e-01    7.05910e-01    2.38289e-01    1.30790e-01    1.30790e-01    2.38289e-01
    3.00000e+01    0.00000e+00    0.00000e+00    0.00000e+00    5.04312e+00    2.24164e+00    5.60300e-01    5.60268e-01    5.60523e-01    5.60268e-01    1.40524e-01    1.39538e-01    1.40524e-01    1.39538e-01    2.82364e+00    9.53157e-01    7.05910e-01    5.23162e-01    7.05910e-01    2.38289e-01    1.30790e-01    1.30790e-01    2.38289e-01
    3.10000e+01    0.00000e+00    0.00000e+00    0.00000e+00    5.04479e+00    2.24232e+00    5.60485e-01    5.60480e-01    5.60669e-01    5.60480e-01    1.40478e-01    1.39700e-01    1.40478e-01    1.39700e-01    2.82364e+00    9.53157e-01    7.05910e-01    5.23162e-01    7.05910e-01    2.38289e-01    1.30790e-01    1.30790e-01    2.38289e-01
    3.20000e+01    0.00000e+00    0.00000e+00    0.00000e+00    5.04618e+00    2.24287e+00    5.60640e-01    5.60662e-01    5.60795e-01    5.60662e-01    1.40433e-01    1.39846e-01    1.40433e-01    1.39846e-01    2.82364e+00    9.53157e-01    7.05910e-01    5.23162e-01    7.05910e-01    2.38289e-01    1.30790e-01    1.30790e-01    2.38289e-01
    3.30000e+01    0.00000e+00    0.00000e+00    0.00000e+00    5.04730e+00    2.24330e+00    5.60764e-01    5.60816e-01    5.60877e-01    5.60816e-01    1.40396e-01    1.39968e-01    1.40396e-01    1.39968e-01    2.82364e+00    9.53157e-01    7.05910e-01    5.23162e-01    7.05910e-01    2.38289e-01    1.30790e-01    1.30790e-01    2.38289e-01
    3.40000e+01    0.00000e+00    0.00000e+00    0.00000e+00    5.04822e+00    2.24365e+00    5.60860e-01    5.60935e-01    5.60970e-01    5.60935e-01    1.40362e-01    1.40072e-01    1.40362e-01    1.40072e-01    2.82364e+00    9.53157e-01    7.05910e-01    5.23162e-01    7.05910e-01    2.38289e-01    1.30790e-01    1.30790e-01    2.38289e-01
    3.50000e+01    0.00000e+00    0.00000e+00    0.00000e+00    5.04896e+00    2.24393e+00    5.60944e-01    5.61042e-01    5.61011e-01    5.61042e-01    1.40337e-01    1.40158e-01    1.40337e-01    1.40158e-01    2.82364e+00    9.53157e-01    7.05910e-01    5.23162e-01    7.05910e-01    2.38289e-01    1.30790e-01    1.30790e-01    2.38289e-01
    3.60000e+01    0.00000e+00    0.00000e+00    0.00000e+00    5.04940e+00    2.24409e+00    5.61002e-01    5.61108e-01    5.61039e-01    5.61108e-01    1.40293e-01    1.40230e-01    1.40293e-01    1.40230e-01    2.82364e+00    9.53157e-01    7.05910e-01    5.23162e-01    7.05910e-01    2.38289e-01    1.30790e-01    1.30790e-01    2.38289e-01
    3.70000e+01    0.00000e+00    0.00000e+00    0.00000e+00    5.04996e+00    2.24432e+00    5.61037e-01    5.61163e-01    5.61147e-01    5.61163e-01    1.40287e-01    1.40278e-01    1.40287e-01    1.40278e-01    2.82364e+00    9.53157e-01    7.05910e-01    5.23162e-01    7.05910e-01    2.38289e-01    1.30790e-01    1.30790e-01    2.38289e-01
    3.80000e+01    0.00000e+00    0.00000e+00    0.00000e+00    5.05003e+00    2.24434e+00    5.61106e-01    5.61203e-01    5.61001e-01    5.61203e-01    1.40273e-01    1.40319e-01    1.40273e-01    1.40319e-01    2.82364e+00    9.53157e-01    7.05910e-01    5.23162e-01    7.05910e-01    2.38289e-01    1.30790e-01    1.30790e-01    2.38289e-01
    3.90000e+01    0.00000e+00    0.00000e+00    0.00000e+00    5.04954e+00    2.24412e+00    5.61066e-01    5.61065e-01    5.61066e-01    5.61065e-01    1.40257e-01    1.40324e-01    1.40257e-01    1.40324e-01    2.82364e+00    9.53157e-01    7.05910e-01    5.23162e-01    7.05910e-01    2.38289e-01    1.30790e-01    1.30790e-01    2.38289e-01
    0.00000e+00    1.00000e+00    0.00000e+00    0.00000e+00    4.97809e+00    2.21261e+00    5.53049e-01    5.53228e-01    5.53049e-01    5.53129e-01    1.38222e-01    1.38288e-01    1.38222e-01    1.38288e-01    2.82364e+00    9.53157e-01    7.05910e-01    5.23162e-01    7.05910e-01    2.38289e-01    1.30790e-01    1.30790e-01    2.38289e-01
    1.00000e+00    1.00000e+00    5.80563e-05    1.28401e-04    4.97804e+00    2.21259e+00    5.53231e-01    5.53246e-01    5.53061e-01    5.52824e-01    1.38351e-01    1.38300e-01    1.38183e-01    1.38251e-01    2.82364e+00    9.53157e-01    7.05910e-01    5.23162e-01    7.05910e-01    2.38289e-01    1.30790e-01    1.30790e-01    2.38289e-01
    2.00000e+00    1.00000e+00    8.71531e-06    1.49217e-04    4.97801e+00    2.21258e+00    5.53253e-01    5.53215e-01    5.53219e-01    5.52719e-01    1.38321e-01    1.38316e-01    1.38193e-01    1.38197e-01    2.82364e+00    9.53157e-01    7.05910e-01    5.23162e-01    7.05910e-01    2.38289e-01    1.30790e-01    1.30790e-01    2.38289e-01
    3.00000e+00    1.00000e+00   -9.30243e-05    1.68407e-04    4.97810e+00    2.21261e+00    5.53094e-01    5.53255e-01    5.53409e-01    5.52679e-01    1.38298e-01    1.38359e-01    1.38241e-01    1.38153e-01    2.82364e+00    9.53157e-01    7.05910e-01    5.23162e-01    7.05910e-01    2.38289e-01    1.30790e-01    1.30790e-01    2.38289e-01
    4.00000e+00    1.00000e+00   -2.09206e-04    1.60354e-04    4.97832e+00    2.21269e+00    5.52939e-01    5.53249e-01    5.53641e-01    5.52703e-01    1.38277e-01    1.38395e-01    1.38321e-01    1.38100e-01    2.82364e+00    9.53157e-01    7.05910e-01    5.23162e-01    7.05910e-01    2.38289e-01    1.30790e-01    1.30790e-01    2.38289e-01
    5.00000e+00    1.00000e+00   -3.40416e-04    1.46409e-04    4.97873e+00    2.21285e+00    5.52767e-01    5.53279e-01    5.53911e-01    5.52774e-01    1.38245e-01    1.38442e-01    1.38409e-01    1.38055e-01    2.82364e+00    9.53157e-01    7.05910e-01    5.23162e-01    7.05910e-01    2.38289e-01    1.30790e-01    1.30790e-01    2.38289e-01
    6.00000e+00    1.00000e+00   -4.92613e-04    1.30695e-04    4.97939e+00    2.21310e+00    5.52604e-01    5.53317e-01    5.54257e-01    5.52861e-01    1.38221e-01    1.38501e-01    1.38524e-01    1.38004e-01    2.82364e+00    9.53157e-01    7.05910e-01    5.23162e-01    7.05910e-01    2.38289e-01    1.30790e-01    1.30790e-01    2.38289e-01
    7.00000e+00    1.00000e+00   -6.76414e-04    1.09124e-04    4.98039e+00    2.21349e+00    5.52423e-01    5.53395e-01    5.54694e-01    5.53005e-01    1.38189e-01    1.38579e-01    1.38660e-01    1.37954e-01    2.82364e+00    9.53157e-01    7.05910e-01    5.23162e-01    7.05910e-01    2.38289e-01    1.30790e-01    1.30790e-01    2.38289e-01
    8.00000e+00    1.00000e+00   -8.97100e-04    8.02027e-05    4.98185e+00    2.21407e+00    5.52236e-01    5.53506e-01    5.55249e-01    5.53209e-01    1.38158e-01    1.38683e-01    1.38835e-01    1.37904e-01    2.82364e+00    9.53157e-01    7.05910e-01    5.23162e-01    7.05910e-01    2.38289e-01    1.30790e-01    1.30790e-01    2.38289e-01
    9.00000e+00    1.00000e+00   -1.16097e-03    4.36545e-05    4.98393e+00    2.21491e+00    5.52045e-01    5.53677e-01    5.55948e-01    5.53495e-01    1.38125e-01    1.38817e-01    1.39050e-01    1.37858e-01    2.82364e+00    9.53157e-01    7.05910e-01    5.23162e-01    7.05910e-01    2.38289e-01    1.30790e-01    1.30790e-01    2.38289e-01
    1.00000e+01    1.00000e+00   -1.47256e-03    6.32333e-07    4.98673e+00    2.21606e+00    5.51856e-01    5.53918e-01    5.56810e-01    5.53871e-01    1.38097e-01    1.38986e-01    1.39314e-01    1.37813e-01    2.82364e+00    9.53157e-01    7.05910e-01    5.23162e-01    7.05910e-01    2.38289e-01    1.30790e-01    1.30790e-01    2.38289e-01
    1.10000e+01    1.00000e+00   -1.83277e-03   -4.81590e-05    4.99029e+00    2.21755e+00    5.51666e-01    5.54239e-01    5.57838e-01    5.54346e-01    1.38071e-01    1.39190e-01    1.39625e-01    1.37770e-01    2.82364e+00    9.53157e-01    7.05910e-01    5.23162e-01    7.05910e-01    2.38289e-01    1.30790e-01    1.30790e-01    2.38289e-01
    1.20000e+01    1.00000e+00   -2.23566e-03   -9.87173e-05    4.99458e+00    2.21936e+00    5.51477e-01    5.54641e-01    5.59015e-01    5.54908e-01    1.38049e-01    1.39427e-01    1.39976e-01    1.37726e-01    2.82364e+00    9.53157e-01    7.05910e-01    5.23162e-01    7.05910e-01    2.38289e-01    1.30790e-01    1.30790e-01    2.38289e-01
    1.30000e+01    1.00000e+00   -2.66634e-03   -1.43722e-04    4.99941e+00    2.22144e+00    5.51287e-01    5.55118e-01    5.60289e-01    5.55527e-01    1.38032e-01    1.39690e-01    1.40351e-01    1.37680e-01    2.82364e+00    9.53157e-01    7.05910e-01    5.23162e-01    7.05910e-01    2.38289e-01    1.30790e-01    1.30790e-01    2.38289e-01
    1.40000e+01    1.00000e+00   -3.10001e-03   -1.75528e-04    5.00452e+00    2.22367e+00    5.51104e-01    5.55654e-01    5.61584e-01    5.56164e-01    1.38025e-01    1.39961e-01    1.40726e-01    1.37628e-01    2.82364e+00    9.53157e-01    7.05910e-01    5.23162e-01    7.05910e-01    2.38289e-01    1.30790e-01    1.30790e-01    2.38289e-01
    1.50000e+01    1.00000e+00   -3.50466e-03   -1.88997e-04    5.00957e+00    2.22593e+00    5.50942e-01    5.56222e-01    5.62805e-01    5.56777e-01    1.38030e-01    1.40222e-01    1.41073e-01    1.37571e-01    2.82364e+00    9.53157e-01    7.05910e-01    5.23162e-01    7.05910e-01    2.38289e-01    1.30790e-01    1.30790e-01    2.38289e-01
    1.60000e+01    1.00000e+00   -3.84734e-03   -1.82240e-04    5.01426e+00    2.22808e+00    5.50826e-01    5.56788e-01    5.63863e-01    5.57325e-01    1.38053e-01    1.40452e-01    1.41370e-01    1.37513e-01    2.82364e+00    9.53157e-01    7.05910e-01    5.23162e-01    7.05910e-01    2.38289e-01    1.30790e-01    1.30790e-01    2.38289e-01
    1.70000e+01    1.00000e+00   -4.10162e-03   -1.58403e-04    5.01835e+00    2.22999e+00    5.50780e-01    5.57317e-01    5.64689e-01    5.57782e-01    1.38098e-01    1.40634e-01    1.41601e-01    1.37462e-01    2.82364e+00    9.53157e-01    7.05910e-01    5.23162e-01    7.05910e-01    2.38289e-01    1.30790e-01    1.30790e-01    2.38289e-01
    1.80000e+01    1.00000e+00   -4.25383e-03   -1.25317e-04    5.02170e+00    2.23159e+00    5.50823e-01    5.57779e-01    5.65255e-01    5.58144e-01    1.38163e-01    1.40760e-01    1.41760e-01    1.37427e-01    2.82364e+00    9.53157e-01    7.05910e-01    5.23162e-01    7.05910e-01    2.38289e-01    1.30790e-01    1.30790e-01    2.38289e-01
    1.90000e+01    1.00000e+00   -4.30496e-03   -9.07262e-05    5.02431e+00    2.23286e+00    5.50963e-01    5.58157e-01    5.65571e-01    5.58421e-01    1.38243e-01    1.40831e-01    1.41849e-01    1.37416e-01    2.82364e+00    9.53157e-01    7.05910e-01    5.23162e-01    7.05910e-01    2.38289e-01    1.30790e-01    1.30790e-01    2.38289e-01
    2.00000e+01    1.00000e+00   -4.26705e-03   -5.90737e-05    5.02631e+00    2.23385e+00    5.51196e-01    5.58454e-01    5.65676e-01    5.58626e-01    1.38333e-01    1.40860e-01    1.41879e-01    1.37438e-01    2.82364e+00    9.53157e-01    7.05910e-01    5.23162e-01    7.05910e-01    2.38289e-01    1.30790e-01    1.30790e-01    2.38289e-01
    2.10000e+01    1.00000e+00   -4.15676e-03   -3.21068e-05    5.02788e+00    2.23463e+00    5.51514e-01    5.58690e-01    5.65621e-01    5.58786e-01    1.38430e-01    1.40857e-01    1.41859e-01    1.37493e-01    2.82364e+00    9.53157e-01    7.05910e-01    5.23162e-01    7.05910e-01    2.38289e-01    1.30790e-01    1.30790e-01    2.38289e-01
    2.20000e+01    1.00000e+00   -3.98898e-03   -8.61622e-06    5.02922e+00    2.23529e+00    5.51913e-01    5.58891e-01    5.65452e-01    5.58922e-01    1.38531e-01    1.40837e-01    1.41799e-01    1.37582e-01    2.82364e+00    9.53157e-01    7.05910e-01    5.23162e-01    7.05910e-01    2.38289e-01    1.30790e-01    1.30790e-01    2.38289e-01
    2.30000e+01    1.00000e+00   -3.77327e-03    1.44407e-05    5.03053e+00    2.23594e+00    5.52393e-01    5.59086e-01    5.65201e-01    5.59049e-01    1.38641e-01    1.40807e-01    1.41709e-01    1.37702e-01    2.82364e+00    9.53157e-01    7.05910e-01    5.23162e-01    7.05910e-01    2.38289e-01    1.30790e-01    1.30790e-01    2.38289e-01
    2.40000e+01    1.00000e+00   -3.51492e-03    3.74555e-05    5.03193e+00    2.23662e+00    5.52958e-01    5.59289e-01    5.64892e-01    5.59185e-01    1.38763e-01    1.40772e-01    1.41597e-01    1.37853e-01    2.82364e+00    9.53157e-01    7.05910e-01    5.23162e-01    7.05910e-01    2.38289e-01    1.30790e-01    1.30790e-01    2.38289e-01
    2.50000e+01    1.00000e+00   -3.21844e-03    5.71385e-05    5.03352e+00    2.23738e+00    5.53611e-01    5.59507e-01    5.64540e-01    5.59344e-01    1.38899e-01    1.40730e-01    1.41472e-01    1.38032e-01    2.82364e+00    9.53157e-01    7.05910e-01    5.23162e-01    7.05910e-01    2.38289e-01    1.30790e-01    1.30790e-01    2.38289e-01
    2.60000e+01    1.00000e+00   -2.89095e-03    6.98912e-05    5.03530e+00    2.23821e+00    5.54344e-01    5.59733e-01    5.64162e-01    5.59534e-01    1.39049e-01    1.40683e-01    1.41342e-01    1.38237e-01    2.82364e+00    9.53157e-01    7.05910e-01    5.23162e-01    7.05910e-01    2.38289e-01    1.30790e-01    1.30790e-01    2.38289e-01
    2.70000e+01    1.00000e+00   -2.54331e-03    7.20974e-05    5.03723e+00    2.23909e+00    5.55137e-01    5.59957e-01    5.63772e-01    5.59756e-01    1.39209e-01    1.40632e-01    1.41216e-01    1.38463e-01    2.82364e+00    9.53157e-01    7.05910e-01    5.23162e-01    7.05910e-01    2.38289e-01    1.30790e-01    1.30790e-01    2.38289e-01
    2.80000e+01    1.00000e+00   -2.18891e-03    6.20238e-05    5.03925e+00    2.23998e+00    5.55958e-01    5.60171e-01    5.63389e-01    5.60005e-01    1.39370e-01    1.40578e-01    1.41096e-01    1.38705e-01    2.82364e+00    9.53157e-01    7.05910e-01    5.23162e-01    7.05910e-01    2.38289e-01    1.30790e-01    1.30790e-01    2.38289e-01
    2.90000e+01    1.00000e+00   -1.84149e-03    4.01420e-05    5.04126e+00    2.24084e+00    5.56773e-01    5.60362e-01    5.63023e-01    5.60270e-01    1.39526e-01    1.40524e-01    1.40988e-01    1.38952e-01    2.82364e+00    9.53157e-01    7.05910e-01    5.23162e-01    7.05910e-01    2.38289e-01    1.30790e-01    1.30790e-01    2.38289e-01
    3.00000e+01    1.00000e+00   -1.51175e-03    1.08564e-05    5.04314e+00    2.24163e+00    5.57548e-01    5.60528e-01    5.62678e-01    5.60532e-01    1.39669e-01    1.40472e-01    1.40887e-01    1.39195e-01    2.82364e+00    9.53157e-01    7.05910e-01    5.23162e-01    7.05910e-01    2.38289e-01    1.30790e-01    1.30790e-01    2.38289e-01
    3.10000e+01    1.00000e+00   -1.20698e-03   -2.31260e-05    5.04481e+00    2.24231e+00    5.58261e-01    5.60663e-01    5.62354e-01    5.60778e-01    1.39799e-01    1.40422e-01    1.40797e-01    1.39425e-01    2.82364e+00    9.53157e-01    7.05910e-01    5.23162e-01    7.05910e-01    2.38289e-01    1.30790e-01    1.30790e-01    2.38289e-01
    3.20000e+01    1.00000e+00   -9.32885e-04   -5.63189e-05    5.04622e+00    2.24287e+00    5.58897e-01    5.60769e-01    5.62062e-01    5.60992e-01    1.39907e-01    1.40377e-01    1.40709e-01    1.39637e-01    2.82364e+00    9.53157e-01    7.05910e-01    5.23162e-01    7.05910e-01    2.38289e-01    1.30790e-01    1.30790e-01    2.38289e-01
    3.30000e+01    1.00000e+00   -6.92062e-04   -8.83759e-05    5.04738e+00    2.24333e+00    5.59449e-01    5.60842e-01    5.61794e-01    5.61171e-01    1.40001e-01    1.40339e-01    1.40634e-01    1.39824e-01    2.82364e+00    9.53157e-01    7.05910e-01    5.23162e-01    7.05910e-01    2.38289e-01    1.30790e-01    1.30790e-01    2.38289e-01
    3.40000e+01    1.00000e+00   -4.81267e-04   -1.14262e-04    5.04830e+00    2.24368e+00    5.59920e-01    5.60907e-01    5.61551e-01    5.61317e-01    1.40076e-01    1.40303e-01    1.40558e-01    1.39987e-01    2.82364e+00    9.53157e-01    7.05910e-01    5.23162e-01    7.05910e-01    2.38289e-01    1.30790e-01    1.30790e-01    2.38289e-01
    3.50000e+01    1.00000e+00   -2.99055e-04   -1.37963e-04    5.04902e+00    2.24395e+00    5.60324e-01    5.60945e-01    5.61339e-01    5.61429e-01    1.40139e-01    1.40269e-01    1.40493e-01    1.40127e-01    2.82364e+00    9.53157e-01    7.05910e-01    5.23162e-01    7.05910e-01    2.38289e-01    1.30790e-01    1.30790e-01    2.38289e-01
    3.60000e+01    1.00000e+00   -1.47501e-04   -1.45638e-04    5.04955e+00    2.24416e+00    5.60662e-01    5.60971e-01    5.61163e-01    5.61488e-01    1.40188e-01    1.40258e-01    1.40419e-01    1.40245e-01    2.82364e+00    9.53157e-01    7.05910e-01    5.23162e-01    7.05910e-01    2.38289e-01    1.30790e-01    1.30790e-01    2.38289e-01
    3.70000e+01    1.00000e+00   -2.46156e-05   -1.40102e-04    5.04991e+00    2.24429e+00    5.60933e-01    5.61019e-01    5.61005e-01    5.61489e-01    1.40235e-01    1.40229e-01    1.40381e-01    1.40321e-01    2.82364e+00    9.53157e-01    7.05910e-01    5.23162e-01    7.05910e-01    2.38289e-01    1.30790e-01    1.30790e-01    2.38289e-01
    3.80000e+01    1.00000e+00    4.24508e-05   -1.26587e-04    5.05006e+00    2.24435e+00    5.61127e-01    5.60995e-01    5.61013e-01    5.61415e-01    1.40263e-01    1.40206e-01    1.40323e-01    1.40366e-01    2.82364e+00    9.53157e-01    7.05910e-01    5.23162e-01    7.05910e-01    2.38289e-01    1.30790e-01    1.30790e-01    2.38289e-01
    3.90000e+01    1.00000e+00    0.00000e+00    0.00000e+00    5.05008e+00    2.24435e+00    5.61184e-01    5.61002e-01    5.61184e-01    5.61119e-01    1.40270e-01    1.40347e-01    1.40270e-01    1.40347e-01    2.82364e+00    9.53157e-01    7.05910e-01    5.23162e-01    7.05910e-01    2.38289e-01    1.30790e-01    1.30790e-01    2.38289e-01
    0.00000e+00    2.00000e+00    0.00000e+00    0.00000e+00    4.97780e+00    2.21249e+00    5.53046e-01    5.53099e-01    5.53046e-01    5.53114e-01    1.38177e-01    1.38324e-01    1.38177e-01    1.38324e-01    2.82364e+00    9.53157e-01    7.05910e-01    5.23162e-01    7.05910e-01    2.38289e-01    1.30790e-01    1.30790e-01    2.38289e-01
    1.00000e+00    2.00000e+00    4.77290e-05    2.36108e-04    4.97778e+00    2.21248e+00    5.53181e-01    5.53430e-01    5.53042e-01    5.52638e-01    1.38335e-01    1.38361e-01    1.38094e-01    1.38218e-01    2.82364e+00    9.53157e-01    7.05910e-01    5.23162e-01    7.05910e-01    2.38289e-01    1.30790e-01    1.30790e-01    2.38289e-01
    2.00000e+00    2.00000e+00    9.88504e-06    3.39469e-04    4.97779e+00    2.21248e+00    5.53218e-01    5.53510e-01    5.53179e-01    5.52384e-01    1.38370e-01    1.38418e-01    1.38083e-01    1.38142e-01    2.82364e+00    9.53157e-01    7.05910e-01    5.23162e-01    7.05910e-01    2.38289e-01    1.30790e-01    1.30790e-01    2.38289e-01
    3.00000e+00    2.00000e+00   -9.53159e-05    3.87808e-04    4.97789e+00    2.21252e+00    5.53088e-01    5.53552e-01    5.53410e-01    5.52272e-01    1.38373e-01    1.38476e-01    1.38124e-01    1.38075e-01    2.82364e+00    9.53157e-01    7.05910e-01    5.23162e-01    7.05910e-01    2.38289e-01    1.30790e-01    1.30790e-01    2.38289e-01
    4.00000e+00    2.00000e+00   -2.40922e-04    3.95177e-04    4.97816e+00    2.21262e+00    5.52907e-01    5.53571e-01    5.53705e-01    5.52269e-01    1.38336e-01    1.38540e-01    1.38204e-01    1.38006e-01    2.82364e+00    9.53157e-01    7.05910e-01    5.23162e-01    7.05910e-01    2.38289e-01    1.30790e-01    1.30790e-01    2.38289e-01
    5.00000e+00    2.00000e+00   -4.15812e-04    3.75853e-04    4.97862e+00    2.21280e+00    5.52683e-01    5.53581e-01    5.54064e-01    5.52343e-01    1.38275e-01    1.38617e-01    1.38303e-01    1.37956e-01    2.82364e+00    9.53157e-01    7.05910e-01    5.23162e-01    7.05910e-01    2.38289e-01    1.30790e-01    1.30790e-01    2.38289e-01