TITLE="LBM output"
VARIABLES = "X", "Y", "U","V","density","f0","f1","f2","f3","f4","f5","f6","f7","f8","feq0","feq1","feq2","feq3","feq4","feq5","feq6","feq7","feq8",
ZONE T = "fluid", I=40, J=40, F=POINT
SOLUTIONTIME=1607
    0.00000e+00    0.00000e+00    0.00000e+00    0.00000e+00    5.19874e+00    2.31042e+00    5.77641e-01    5.77639e-01    5.77641e-01    5.77639e-01    1.44477e-01    1.44401e-01    1.44477e-01    1.44401e-01    2.93280e+00    9.90007e-01    7.33201e-01    5.43387e-01    7.33201e-01    2.47502e-01    1.35847e-01    1.35847e-01    2.47502e-01
    1.00000e+00    0.00000e+00    0.00000e+00    0.00000e+00    5.19918e+00    2.31063e+00    5.77575e-01    5.77786e-01    5.77674e-01    5.77786e-01    1.44450e-01    1.44417e-01    1.44450e-01    1.44417e-01    2.93280e+00    9.90007e-01    7.33201e-01    5.43387e-01    7.33201e-01    2.47502e-01    1.35847e-01    1.35847e-01    2.47502e-01
    2.00000e+00    0.00000e+00    0.00000e+00    0.00000e+00    5.19906e+00    2.31057e+00    5.77725e-01    5.77717e-01    5.77607e-01    5.77717e-01    1.44463e-01    1.44399e-01    1.44463e-01    1.44399e-01    2.93280e+00    9.90007e-01    7.33201e-01    5.43387e-01    7.33201e-01    2.47502e-01    1.35847e-01    1.35847e-01    2.47502e-01
    3.00000e+00    0.00000e+00    0.00000e+00    0.00000e+00    5.19876e+00    2.31044e+00    5.77576e-01    5.77736e-01    5.77612e-01    5.77736e-01    1.44472e-01    1.44358e-01    1.44472e-01    1.44358e-01    2.93280e+00    9.90007e-01    7.33201e-01    5.43387e-01    7.33201e-01    2.47502e-01    1.35847e-01    1.35847e-01    2.47502e-01
    4.00000e+00    0.00000e+00    0.00000e+00    0.00000e+00    5.19856e+00    2.31035e+00    5.77637e-01    5.77667e-01    5.77557e-01    5.77667e-01    1.44498e-01    1.44341e-01    1.44498e-01    1.44341e-01    2.93280e+00    9.90007e-01    7.33201e-01    5.43387e-01    7.33201e-01    2.47502e-01    1.35847e-01    1.35847e-01    2.47502e-01
    5.00000e+00    0.00000e+00    0.00000e+00    0.00000e+00    5.19816e+00    2.31017e+00    5.77547e-01    5.77632e-01    5.77525e-01    5.77632e-01    1.44538e-01    1.44288e-01    1.44538e-01    1.44288e-01    2.93280e+00    9.90007e-01    7.33201e-01    5.43387e-01    7.33201e-01    2.47502e-01    1.35847e-01    1.35847e-01    2.47502e-01
    6.00000e+00    0.00000e+00    0.00000e+00    0.00000e+00    5.19780e+00    2.31001e+00    5.77541e-01    5.77581e-01    5.77475e-01    5.77581e-01    1.44578e-01    1.44225e-01    1.44578e-01    1.44225e-01    2.93280e+00    9.90007e-01    7.33201e-01    5.43387e-01    7.33201e-01    2.47502e-01    1.35847e-01    1.35847e-01    2.47502e-01
    7.00000e+00    0.00000e+00    0.00000e+00    0.00000e+00    5.19736e+00    2.30982e+00    5.77474e-01    5.77538e-01    5.77428e-01    5.77538e-01    1.44620e-01    1.44161e-01    1.44620e-01    1.44161e-01    2.93280e+00    9.90007e-01    7.33201e-01    5.43387e-01    7.33201e-01    2.47502e-01    1.35847e-01    1.35847e-01    2.47502e-01
    8.00000e+00    0.00000e+00    0.00000e+00    0.00000e+00    5.19689e+00    2.30961e+00    5.77440e-01    5.77481e-01    5.77371e-01    5.77481e-01    1.44666e-01    1.44087e-01    1.44666e-01    1.44087e-01    2.93280e+00    9.90007e-01    7.33201e-01    5.43387e-01    7.33201e-01    2.47502e-01    1.35847e-01    1.35847e-01    2.47502e-01
    9.00000e+00    0.00000e+00    0.00000e+00    0.00000e+00    5.19638e+00    2.30939e+00    5.77375e-01    5.77424e-01    5.77315e-01    5.77424e-01    1.44709e-01    1.44017e-01    1.44709e-01    1.44017e-01    2.93280e+00    9.90007e-01    7.33201e-01    5.43387e-01    7.33201e-01    2.47502e-01    1.35847e-01    1.35847e-01    2.47502e-01
    1.00000e+01    0.00000e+00    0.00000e+00    0.00000e+00    5.19584e+00    2.30915e+00    5.77325e-01    5.77361e-01    5.77254e-01    5.77361e-01    1.44753e-01    1.43942e-01    1.44753e-01    1.43942e-01    2.93280e+00    9.90007e-01    7.33201e-01    5.43387e-01    7.33201e-01    2.47502e-01    1.35847e-01    1.35847e-01    2.47502e-01
    1.10000e+01    0.00000e+00    0.00000e+00    0.00000e+00    5.19528e+00    2.30891e+00    5.77260e-01    5.77297e-01    5.77191e-01    5.77297e-01    1.44795e-01    1.43869e-01    1.44795e-01    1.43869e-01    2.93280e+00    9.90007e-01    7.33201e-01    5.43387e-01    7.33201e-01    2.47502e-01    1.35847e-01    1.35847e-01    2.47502e-01
    1.20000e+01    0.00000e+00    0.00000e+00    0.00000e+00    5.19470e+00    2.30866e+00    5.77201e-01    5.77229e-01    5.77127e-01    5.77229e-01    1.44835e-01    1.43795e-01    1.44835e-01    1.43795e-01    2.93280e+00    9.90007e-01    7.33201e-01    5.43387e-01    7.33201e-01    2.47502e-01    1.35847e-01    1.35847e-01    2.47502e-01
    1.30000e+01    0.00000e+00    0.00000e+00    0.00000e+00    5.19412e+00    2.30840e+00    5.77135e-01    5.77162e-01    5.77064e-01    5.77162e-01    1.44871e-01    1.43725e-01    1.44871e-01    1.43725e-01    2.93280e+00    9.90007e-01    7.33201e-01    5.43387e-01    7.33201e-01    2.47502e-01    1.35847e-01    1.35847e-01    2.47502e-01
    1.40000e+01    0.00000e+00    0.00000e+00    0.00000e+00    5.19353e+00    2.30815e+00    5.77074e-01    5.77093e-01    5.77001e-01    5.77093e-01    1.44904e-01    1.43658e-01    1.44904e-01    1.43658e-01    2.93280e+00    9.90007e-01    7.33201e-01    5.43387e-01    7.33201e-01    2.47502e-01    1.35847e-01    1.35847e-01    2.47502e-01
    1.50000e+01    0.00000e+00    0.00000e+00    0.00000e+00    5.19295e+00    2.30790e+00    5.77009e-01    5.77026e-01    5.76939e-01    5.77026e-01    1.44930e-01    1.43598e-01    1.44930e-01    1.43598e-01    2.93280e+00    9.90007e-01    7.33201e-01    5.43387e-01    7.33201e-01    2.47502e-01    1.35847e-01    1.35847e-01    2.47502e-01
    1.60000e+01    0.00000e+00    0.00000e+00    0.00000e+00    5.19239e+00    2.30766e+00    5.76948e-01    5.76960e-01    5.76880e-01    5.76960e-01    1.44949e-01    1.43544e-01    1.44949e-01    1.43544e-01    2.93280e+00    9.90007e-01    7.33201e-01    5.43387e-01    7.33201e-01    2.47502e-01    1.35847e-01    1.35847e-01    2.47502e-01
    1.70000e+01    0.00000e+00    0.00000e+00    0.00000e+00    5.19185e+00    2.30742e+00    5.76889e-01    5.76897e-01    5.76824e-01    5.76897e-01    1.44959e-01    1.43500e-01    1.44959e-01    1.43500e-01    2.93280e+00    9.90007e-01    7.33201e-01    5.43387e-01    7.33201e-01    2.47502e-01    1.35847e-01    1.35847e-01    2.47502e-01
    1.80000e+01    0.00000e+00    0.00000e+00    0.00000e+00    5.19133e+00    2.30721e+00    5.76833e-01    5.76837e-01    5.76770e-01    5.76837e-01    1.44960e-01    1.43466e-01    1.44960e-01    1.43466e-01    2.93280e+00    9.90007e-01    7.33201e-01    5.43387e-01    7.33201e-01    2.47502e-01    1.35847e-01    1.35847e-01    2.47502e-01
    1.90000e+01    0.00000e+00    0.00000e+00    0.00000e+00    5.19085e+00    2.30700e+00    5.76779e-01    5.76781e-01    5.76721e-01    5.76781e-01    1.44948e-01    1.43446e-01    1.44948e-01    1.43446e-01    2.93280e+00    9.90007e-01    7.33201e-01    5.43387e-01    7.33201e-01    2.47502e-01    1.35847e-01    1.35847e-01    2.47502e-01
    2.00000e+01    0.00000e+00    0.00000e+00    0.00000e+00    5.19039e+00    2.30681e+00    5.76729e-01    5.76729e-01    5.76675e-01    5.76729e-01    1.44923e-01    1.43440e-01    1.44923e-01    1.43440e-01    2.93280e+00    9.90007e-01    7.33201e-01    5.43387e-01    7.33201e-01    2.47502e-01    1.35847e-01    1.35847e-01    2.47502e-01
    2.10000e+01    0.00000e+00    0.00000e+00    0.00000e+00    5.18997e+00    2.30663e+00    5.76682e-01    5.76679e-01    5.76632e-01    5.76679e-01    1.44886e-01    1.43448e-01    1.44886e-01    1.43448e-01    2.93280e+00    9.90007e-01    7.33201e-01    5.43387e-01    7.33201e-01    2.47502e-01    1.35847e-01    1.35847e-01    2.47502e-01
    2.20000e+01    0.00000e+00    0.00000e+00    0.00000e+00    5.18957e+00    2.30646e+00    5.76639e-01    5.76634e-01    5.76592e-01    5.76634e-01    1.44835e-01    1.43470e-01    1.44835e-01    1.43470e-01    2.93280e+00    9.90007e-01    7.33201e-01    5.43387e-01    7.33201e-01    2.47502e-01    1.35847e-01    1.35847e-01    2.47502e-01
    2.30000e+01    0.00000e+00    0.00000e+00    0.00000e+00    5.18920e+00    2.30630e+00    5.76598e-01    5.76591e-01    5.76554e-01    5.76591e-01    1.44772e-01    1.43507e-01    1.44772e-01    1.43507e-01    2.93280e+00    9.90007e-01    7.33201e-01    5.43387e-01    7.33201e-01    2.47502e-01    1.35847e-01    1.35847e-01    2.47502e-01
    2.40000e+01    0.00000e+00    0.00000e+00    0.00000e+00    5.18884e+00    2.30616e+00    5.76560e-01    5.76550e-01    5.76518e-01    5.76550e-01    1.44698e-01    1.43556e-01    1.44698e-01    1.43556e-01    2.93280e+00    9.90007e-01    7.33201e-01    5.43387e-01    7.33201e-01    2.47502e-01    1.35847e-01    1.35847e-01    2.47502e-01
    2.50000e+01    0.00000e+00    0.00000e+00    0.00000e+00    5.18850e+00    2.30601e+00    5.76524e-01    5.76510e-01    5.76483e-01    5.76510e-01    1.44617e-01    1.43614e-01    1.44617e-01    1.43614e-01    2.93280e+00    9.90007e-01    7.33201e-01    5.43387e-01    7.33201e-01    2.47502e-01    1.35847e-01    1.35847e-01    2.47502e-01
    2.60000e+01    0.00000e+00    0.00000e+00    0.00000e+00    5.18818e+00    2.30588e+00    5.76489e-01    5.76471e-01    5.76450e-01    5.76471e-01    1.44529e-01    1.43680e-01    1.44529e-01    1.43680e-01    2.93280e+00    9.90007e-01    7.33201e-01    5.43387e-01    7.33201e-01    2.47502e-01    1.35847e-01    1.35847e-01    2.47502e-01
    2.70000e+01    0.00000e+00    0.00000e+00    0.00000e+00    5.18786e+00    2.30574e+00    5.76456e-01    5.76432e-01    5.76417e-01    5.76432e-01    1.44440e-01    1.43749e-01    1.44440e-01    1.43749e-01    2.93280e+00    9.90007e-01    7.33201e-01    5.43387e-01    7.33201e-01    2.47502e-01    1.35847e-01    1.35847e-01    2.47502e-01
    2.80000e+01    0.00000e+00    0.00000e+00    0.00000e+00    5.18755e+00    2.30561e+00    5.76422e-01    5.76394e-01    5.76385e-01    5.76394e-01    1.44353e-01    1.43818e-01    1.44353e-01    1.43818e-01    2.93280e+00    9.90007e-01    7.33201e-01    5.43387e-01    7.33201e-01    2.47502e-01    1.35847e-01    1.35847e-01    2.47502e-01
    2.90000e+01    0.00000e+00    0.00000e+00    0.00000e+00    5.18725e+00    2.30549e+00    5.76390e-01    5.76356e-01    5.76353e-01    5.76356e-01    1.44271e-01    1.43883e-01    1.44271e-01    1.43883e-01    2.93280e+00    9.90007e-01    7.33201e-01    5.43387e-01    7.33201e-01    2.47502e-01    1.35847e-01    1.35847e-01    2.47502e-01
    3.00000e+01    0.00000e+00    0.00000e+00    0.00000e+00    5.18696e+00    2.30536e+00    5.76358e-01    5.76318e-01    5.76324e-01    5.76318e-01    1.44198e-01    1.43941e-01    1.44198e-01    1.43941e-01    2.93280e+00    9.90007e-01    7.33201e-01    5.43387e-01    7.33201e-01    2.47502e-01    1.35847e-01    1.35847e-01    2.47502e-01
    3.10000e+01    0.00000e+00    0.00000e+00    0.00000e+00    5.18669e+00    2.30525e+00    5.76329e-01    5.76281e-01    5.76295e-01    5.76281e-01    1.44137e-01    1.43990e-01    1.44137e-01    1.43990e-01    2.93280e+00    9.90007e-01    7.33201e-01    5.43387e-01    7.33201e-01    2.47502e-01    1.35847e-01    1.35847e-01    2.47502e-01
    3.20000e+01    0.00000e+00    0.00000e+00    0.00000e+00    5.18644e+00    2.30514e+00    5.76300e-01    5.76248e-01    5.76271e-01    5.76248e-01    1.44089e-01    1.44026e-01    1.44089e-01    1.44026e-01    2.93280e+00    9.90007e-01    7.33201e-01    5.43387e-01    7.33201e-01    2.47502e-01    1.35847e-01    1.35847e-01    2.47502e-01
    3.30000e+01    0.00000e+00    0.00000e+00    0.00000e+00    5.18621e+00    2.30504e+00    5.76274e-01    5.76218e-01    5.76245e-01    5.76218e-01    1.44056e-01    1.44050e-01    1.44056e-01    1.44050e-01    2.93280e+00    9.90007e-01    7.33201e-01    5.43387e-01    7.33201e-01    2.47502e-01    1.35847e-01    1.35847e-01    2.47502e-01
    3.40000e+01    0.00000e+00    0.00000e+00    0.00000e+00    5.18603e+00    2.30496e+00    5.76250e-01    5.76190e-01    5.76235e-01    5.76190e-01    1.44038e-01    1.44061e-01    1.44038e-01    1.44061e-01    2.93280e+00    9.90007e-01    7.33201e-01    5.43387e-01    7.33201e-01    2.47502e-01    1.35847e-01    1.35847e-01    2.47502e-01
    3.50000e+01    0.00000e+00    0.00000e+00    0.00000e+00    5.18584e+00    2.30489e+00    5.76234e-01    5.76168e-01    5.76204e-01    5.76168e-01    1.44029e-01    1.44064e-01    1.44029e-01    1.44064e-01    2.93280e+00    9.90007e-01    7.33201e-01    5.43387e-01    7.33201e-01    2.47502e-01    1.35847e-01    1.35847e-01    2.47502e-01
    3.60000e+01    0.00000e+00    0.00000e+00    0.00000e+00    5.18579e+00    2.30486e+00    5.76212e-01    5.76143e-01    5.76230e-01    5.76143e-01    1.44046e-01    1.44053e-01    1.44046e-01    1.44053e-01    2.93280e+00    9.90007e-01    7.33201e-01    5.43387e-01    7.33201e-01    2.47502e-01    1.35847e-01    1.35847e-01    2.47502e-01
    3.70000e+01    0.00000e+00    0.00000e+00    0.00000e+00    5.18566e+00    2.30481e+00    5.76219e-01    5.76153e-01    5.76167e-01    5.76153e-01    1.44041e-01    1.44041e-01    1.44041e-01    1.44041e-01    2.93280e+00    9.90007e-01    7.33201e-01    5.43387e-01    7.33201e-01    2.47502e-01    1.35847e-01    1.35847e-01    2.47502e-01
    3.80000e+01    0.00000e+00    0.00000e+00    0.00000e+00    5.18568e+00    2.30482e+00    5.76189e-01    5.76134e-01    5.76252e-01    5.76134e-01    1.44052e-01    1.44027e-01    1.44052e-01    1.44027e-01    2.93280e+00    9.90007e-01    7.33201e-01    5.43387e-01    7.33201e-01    2.47502e-01    1.35847e-01    1.35847e-01    2.47502e-01
    3.90000e+01    0.00000e+00    0.00000e+00    0.00000e+00    5.18597e+00    2.30495e+00    5.76217e-01    5.76215e-01    5.76217e-01    5.76215e-01    1.44059e-01    1.44020e-01    1.44059e-01    1.44020e-01    2.93280e+00    9.90007e-01    7.33201e-01    5.43387e-01    7.33201e-01    2.47502e-01    1.35847e-01    1.35847e-01    2.47502e-01
    0.00000e+00    1.00000e+00    0.00000e+00    0.00000e+00    5.19920e+00    2.31064e+00    5.77772e-01    5.77577e-01    5.77772e-01    5.77682e-01    1.44471e-01    1.44412e-01    1.44471e-01    1.44412e-01    2.93280e+00    9.90007e-01    7.33201e-01    5.43387e-01    7.33201e-01    2.47502e-01    1.35847e-01    1.35847e-01    2.47502e-01
    1.00000e+00    1.00000e+00   -9.84697e-05   -8.64358e-05    5.19912e+00    2.31060e+00    5.77564e-01    5.77549e-01    5.77892e-01    5.77825e-01    1.44338e-01    1.44422e-01    1.44517e-01    1.44416e-01    2.93280e+00    9.90007e-01    7.33201e-01    5.43387e-01    7.33201e-01    2.47502e-01    1.35847e-01    1.35847e-01    2.47502e-01
    2.00000e+00    1.00000e+00   -1.65013e-04   -5.14092e-05    5.19900e+00    2.31054e+00    5.77397e-01    5.77582e-01    5.77979e-01    5.77741e-01    1.44383e-01    1.44440e-01    1.44575e-01    1.44357e-01    2.93280e+00    9.90007e-01    7.33201e-01    5.43387e-01    7.33201e-01    2.47502e-01    1.35847e-01    1.35847e-01    2.47502e-01
    3.00000e+00    1.00000e+00   -2.59528e-04   -4.34817e-05    5.19881e+00    2.31046e+00    5.77295e-01    5.77504e-01    5.78199e-01    5.77641e-01    1.44366e-01    1.44444e-01    1.44634e-01    1.44266e-01    2.93280e+00    9.90007e-01    7.33201e-01    5.43387e-01    7.33201e-01    2.47502e-01    1.35847e-01    1.35847e-01    2.47502e-01
    4.00000e+00    1.00000e+00   -4.11432e-04   -8.07410e-06    5.19855e+00    2.31034e+00    5.77038e-01    5.77521e-01    5.78461e-01    5.77520e-01    1.44342e-01    1.44467e-01    1.44721e-01    1.44130e-01    2.93280e+00    9.90007e-01    7.33201e-01    5.43387e-01    7.33201e-01    2.47502e-01    1.35847e-01    1.35847e-01    2.47502e-01
    5.00000e+00    1.00000e+00   -5.97401e-04    8.29723e-06    5.19820e+00    2.31019e+00    5.76712e-01    5.77470e-01    5.78782e-01    5.77414e-01    1.44311e-01    1.44500e-01    1.44835e-01    1.43988e-01    2.93280e+00    9.90007e-01    7.33201e-01    5.43387e-01    7.33201e-01    2.47502e-01    1.35847e-01    1.35847e-01    2.47502e-01
    6.00000e+00    1.00000e+00   -8.07649e-04    1.71608e-05    5.19782e+00    2.31002e+00    5.76319e-01    5.77439e-01    5.79115e-01    5.77348e-01    1.44259e-01    1.44530e-01    1.44961e-01    1.43830e-01    2.93280e+00    9.90007e-01    7.33201e-01    5.43387e-01    7.33201e-01    2.47502e-01    1.35847e-01    1.35847e-01    2.47502e-01
    7.00000e+00    1.00000e+00   -1.02847e-03    2.21866e-05    5.19740e+00    2.30983e+00    5.75897e-01    5.77385e-01    5.79462e-01    5.77274e-01    1.44209e-01    1.44566e-01    1.45097e-01    1.43674e-01    2.93280e+00    9.90007e-01    7.33201e-01    5.43387e-01    7.33201e-01    2.47502e-01    1.35847e-01    1.35847e-01    2.47502e-01
    8.00000e+00    1.00000e+00   -1.25752e-03    2.78037e-05    5.19693e+00    2.30962e+00    5.75458e-01    5.77338e-01    5.79814e-01    5.77206e-01    1.44153e-01    1.44597e-01    1.45237e-01    1.43501e-01    2.93280e+00    9.90007e-01    7.33201e-01    5.43387e-01    7.33201e-01    2.47502e-01    1.35847e-01    1.35847e-01    2.47502e-01
    9.00000e+00    1.00000e+00   -1.49013e-03    2.95516e-05    5.19642e+00    2.30940e+00    5.74999e-01    5.77283e-01    5.80164e-01    5.77143e-01    1.44094e-01    1.44630e-01    1.45376e-01    1.43334e-01    2.93280e+00    9.90007e-01    7.33201e-01    5.43387e-01    7.33201e-01    2.47502e-01    1.35847e-01    1.35847e-01    2.47502e-01
    1.00000e+01    1.00000e+00   -1.72121e-03    3.12247e-05    5.19589e+00    2.30916e+00    5.74538e-01    5.77228e-01    5.80503e-01    5.77081e-01    1.44033e-01    1.44661e-01    1.45515e-01    1.43165e-01    2.93280e+00    9.90007e-01    7.33201e-01    5.43387e-01    7.33201e-01    2.47502e-01    1.35847e-01    1.35847e-01    2.47502e-01
    1.10000e+01    1.00000e+00   -1.94686e-03    3.07843e-05    5.19533e+00    2.30891e+00    5.74080e-01    5.77169e-01    5.80828e-01    5.77023e-01    1.43972e-01    1.44692e-01    1.45648e-01    1.43001e-01    2.93280e+00    9.90007e-01    7.33201e-01    5.43387e-01    7.33201e-01    2.47502e-01    1.35847e-01    1.35847e-01    2.47502e-01
    1.20000e+01    1.00000e+00   -2.16346e-03    2.94589e-05    5.19475e+00    2.30866e+00    5.73632e-01    5.77110e-01    5.81131e-01    5.76969e-01    1.43911e-01    1.44718e-01    1.45775e-01    1.42843e-01    2.93280e+00    9.90007e-01    7.33201e-01    5.43387e-01    7.33201e-01    2.47502e-01    1.35847e-01    1.35847e-01    2.47502e-01
    1.30000e+01    1.00000e+00   -2.36646e-03    2.58472e-05    5.19416e+00    2.30840e+00    5.73202e-01    5.77050e-01    5.81405e-01    5.76922e-01    1.43851e-01    1.44743e-01    1.45892e-01    1.42696e-01    2.93280e+00    9.90007e-01    7.33201e-01    5.43387e-01    7.33201e-01    2.47502e-01    1.35847e-01    1.35847e-01    2.47502e-01
    1.40000e+01    1.00000e+00   -2.55063e-03    2.08043e-05    5.19357e+00    2.30814e+00    5.72800e-01    5.76991e-01    5.81641e-01    5.76882e-01    1.43794e-01    1.44764e-01    1.45997e-01    1.42562e-01    2.93280e+00    9.90007e-01    7.33201e-01    5.43387e-01    7.33201e-01    2.47502e-01    1.35847e-01    1.35847e-01    2.47502e-01
    1.50000e+01    1.00000e+00   -2.71049e-03    1.27553e-05    5.19299e+00    2.30789e+00    5.72435e-01    5.76933e-01    5.81830e-01    5.76854e-01    1.43740e-01    1.44779e-01    1.46086e-01    1.42445e-01    2.93280e+00    9.90007e-01    7.33201e-01    5.43387e-01    7.33201e-01    2.47502e-01    1.35847e-01    1.35847e-01    2.47502e-01
    1.60000e+01    1.00000e+00   -2.84023e-03    2.26086e-06    5.19242e+00    2.30764e+00    5.72119e-01    5.76877e-01    5.81963e-01    5.76838e-01    1.43691e-01    1.44788e-01    1.46156e-01    1.42350e-01    2.93280e+00    9.90007e-01    7.33201e-01    5.43387e-01    7.33201e-01    2.47502e-01    1.35847e-01    1.35847e-01    2.47502e-01
    1.70000e+01    1.00000e+00   -2.93379e-03   -1.05810e-05    5.19187e+00    2.30740e+00    5.71860e-01    5.76823e-01    5.82029e-01    5.76832e-01    1.43649e-01    1.44790e-01    1.46204e-01    1.42281e-01    2.93280e+00    9.90007e-01    7.33201e-01    5.43387e-01    7.33201e-01    2.47502e-01    1.35847e-01    1.35847e-01    2.47502e-01
    1.80000e+01    1.00000e+00   -2.98558e-03   -2.60018e-05    5.19134e+00    2.30718e+00    5.71673e-01    5.76773e-01    5.82020e-01    5.76841e-01    1.43615e-01    1.44782e-01    1.46225e-01    1.42239e-01    2.93280e+00    9.90007e-01    7.33201e-01    5.43387e-01    7.33201e-01    2.47502e-01    1.35847e-01    1.35847e-01    2.47502e-01
    1.90000e+01    1.00000e+00   -2.99093e-03   -4.39513e-05    5.19085e+00    2.30697e+00    5.71564e-01    5.76725e-01    5.81929e-01    5.76862e-01    1.43591e-01    1.44765e-01    1.46216e-01    1.42230e-01    2.93280e+00    9.90007e-01    7.33201e-01    5.43387e-01    7.33201e-01    2.47502e-01    1.35847e-01    1.35847e-01    2.47502e-01
    2.00000e+01    1.00000e+00   -2.94625e-03   -6.25090e-05    5.19038e+00    2.30677e+00    5.71542e-01    5.76681e-01    5.81751e-01    5.76889e-01    1.43578e-01    1.44739e-01    1.46177e-01    1.42255e-01    2.93280e+00    9.90007e-01    7.33201e-01    5.43387e-01    7.33201e-01    2.47502e-01    1.35847e-01    1.35847e-01    2.47502e-01
    2.10000e+01    1.00000e+00   -2.84999e-03   -8.14818e-05    5.18994e+00    2.30658e+00    5.71611e-01    5.76639e-01    5.81486e-01    5.76922e-01    1.43576e-01    1.44702e-01    1.46104e-01    1.42314e-01    2.93280e+00    9.90007e-01    7.33201e-01    5.43387e-01    7.33201e-01    2.47502e-01    1.35847e-01    1.35847e-01    2.47502e-01
    2.20000e+01    1.00000e+00   -2.70292e-03   -1.00243e-04    5.18953e+00    2.30641e+00    5.71774e-01    5.76600e-01    5.81138e-01    5.76957e-01    1.43586e-01    1.44655e-01    1.45999e-01    1.42406e-01    2.93280e+00    9.90007e-01    7.33201e-01    5.43387e-01    7.33201e-01    2.47502e-01    1.35847e-01    1.35847e-01    2.47502e-01
    2.30000e+01    1.00000e+00   -2.50821e-03   -1.16368e-04    5.18914e+00    2.30626e+00    5.72025e-01    5.76565e-01    5.80714e-01    5.76985e-01    1.43608e-01    1.44600e-01    1.45863e-01    1.42528e-01    2.93280e+00    9.90007e-01    7.33201e-01    5.43387e-01    7.33201e-01    2.47502e-01    1.35847e-01    1.35847e-01    2.47502e-01
    2.40000e+01    1.00000e+00   -2.27185e-03   -1.28548e-04    5.18878e+00    2.30611e+00    5.72358e-01    5.76531e-01    5.80228e-01    5.77000e-01    1.43641e-01    1.44537e-01    1.45699e-01    1.42677e-01    2.93280e+00    9.90007e-01    7.33201e-01    5.43387e-01    7.33201e-01    2.47502e-01    1.35847e-01    1.35847e-01    2.47502e-01
    2.50000e+01    1.00000e+00   -2.00263e-03   -1.36707e-04    5.18843e+00    2.30597e+00    5.72759e-01    5.76499e-01    5.79696e-01    5.77002e-01    1.43683e-01    1.44469e-01    1.45513e-01    1.42845e-01    2.93280e+00    9.90007e-01    7.33201e-01    5.43387e-01    7.33201e-01    2.47502e-01    1.35847e-01    1.35847e-01    2.47502e-01
    2.60000e+01    1.00000e+00   -1.71129e-03   -1.38898e-04    5.18810e+00    2.30583e+00    5.73212e-01    5.76468e-01    5.79138e-01    5.76984e-01    1.43732e-01    1.44399e-01    1.45311e-01    1.43026e-01    2.93280e+00    9.90007e-01    7.33201e-01    5.43387e-01    7.33201e-01    2.47502e-01    1.35847e-01    1.35847e-01    2.47502e-01
    2.70000e+01    1.00000e+00   -1.41031e-03   -1.34201e-04    5.18778e+00    2.30570e+00    5.73695e-01    5.76439e-01    5.78579e-01    5.76941e-01    1.43787e-01    1.44330e-01    1.45101e-01    1.43211e-01    2.93280e+00    9.90007e-01    7.33201e-01    5.43387e-01    7.33201e-01    2.47502e-01    1.35847e-01    1.35847e-01    2.47502e-01
    2.80000e+01    1.00000e+00   -1.11301e-03   -1.23359e-04    5.18748e+00    2.30557e+00    5.74187e-01    5.76411e-01    5.78040e-01    5.76875e-01    1.43842e-01    1.44264e-01    1.44890e-01    1.43392e-01    2.93280e+00    9.90007e-01    7.33201e-01    5.43387e-01    7.33201e-01    2.47502e-01    1.35847e-01    1.35847e-01    2.47502e-01
    2.90000e+01    1.00000e+00   -8.32480e-04   -1.06616e-04    5.18718e+00    2.30545e+00    5.74663e-01    5.76384e-01    5.77545e-01    5.76788e-01    1.43897e-01    1.44203e-01    1.44690e-01    1.43560e-01    2.93280e+00    9.90007e-01    7.33201e-01    5.43387e-01    7.33201e-01    2.47502e-01    1.35847e-01    1.35847e-01    2.47502e-01
    3.00000e+01    1.00000e+00   -5.80449e-04   -8.43025e-05    5.18690e+00    2.30533e+00    5.75102e-01    5.76359e-01    5.77111e-01    5.76682e-01    1.43948e-01    1.44152e-01    1.44506e-01    1.43708e-01    2.93280e+00    9.90007e-01    7.33201e-01    5.43387e-01    7.33201e-01    2.47502e-01    1.35847e-01    1.35847e-01    2.47502e-01
    3.10000e+01    1.00000e+00   -3.66687e-04   -5.80127e-05    5.18664e+00    2.30522e+00    5.75485e-01    5.76336e-01    5.76754e-01    5.76562e-01    1.43992e-01    1.44111e-01    1.44346e-01    1.43831e-01    2.93280e+00    9.90007e-01    7.33201e-01    5.43387e-01    7.33201e-01    2.47502e-01    1.35847e-01    1.35847e-01    2.47502e-01
    3.20000e+01    1.00000e+00   -1.98300e-04   -2.98124e-05    5.18640e+00    2.30512e+00    5.75798e-01    5.76314e-01    5.76484e-01    5.76437e-01    1.44027e-01    1.44080e-01    1.44214e-01    1.43925e-01    2.93280e+00    9.90007e-01    7.33201e-01    5.43387e-01    7.33201e-01    2.47502e-01    1.35847e-01    1.35847e-01    2.47502e-01
    3.30000e+01    1.00000e+00   -7.87413e-05   -1.14754e-06    5.18619e+00    2.30503e+00    5.76030e-01    5.76294e-01    5.76302e-01    5.76312e-01    1.44054e-01    1.44062e-01    1.44116e-01    1.43988e-01    2.93280e+00    9.90007e-01    7.33201e-01    5.43387e-01    7.33201e-01    2.47502e-01    1.35847e-01    1.35847e-01    2.47502e-01
    3.40000e+01    1.00000e+00   -5.78722e-06    2.43015e-05    5.18601e+00    2.30496e+00    5.76179e-01    5.76281e-01    5.76199e-01    5.76204e-01    1.44070e-01    1.44051e-01    1.44050e-01    1.44021e-01    2.93280e+00    9.90007e-01    7.33201e-01    5.43387e-01    7.33201e-01    2.47502e-01    1.35847e-01    1.35847e-01    2.47502e-01
    3.50000e+01    1.00000e+00    2.31841e-05    4.86111e-05    5.18586e+00    2.30489e+00    5.76256e-01    5.76263e-01    5.76177e-01    5.76100e-01    1.44076e-01    1.44056e-01    1.44011e-01    1.44032e-01    2.93280e+00    9.90007e-01    7.33201e-01    5.43387e-01    7.33201e-01    2.47502e-01    1.35847e-01    1.35847e-01    2.47502e-01
    3.60000e+01    1.00000e+00    1.92164e-05    6.76408e-05    5.18577e+00    2.30485e+00    5.76260e-01    5.76272e-01    5.76194e-01    5.76034e-01    1.44075e-01    1.44059e-01    1.44001e-01    1.44020e-01    2.93280e+00    9.90007e-01    7.33201e-01    5.43387e-01    7.33201e-01    2.47502e-01    1.35847e-01    1.35847e-01    2.47502e-01
    3.70000e+01    1.00000e+00   -1.10855e-05    6.90444e-05    5.18572e+00    2.30483e+00    5.76229e-01    5.76240e-01    5.76275e-01    5.76004e-01    1.44059e-01    1.44070e-01    1.44004e-01    1.44004e-01    2.93280e+00    9.90007e-01    7.33201e-01    5.43387e-01    7.33201e-01    2.47502e-01    1.35847e-01    1.35847e-01    2.47502e-01
    3.80000e+01    1.00000e+00   -3.31811e-05    6.65862e-05    5.18571e+00    2.30483e+00    5.76153e-01    5.76261e-01    5.76253e-01    5.76036e-01    1.44057e-01    1.44090e-01    1.44033e-01    1.43994e-01    2.93280e+00    9.90007e-01    7.33201e-01    5.43387e-01    7.33201e-01    2.47502e-01    1.35847e-01    1.35847e-01    2.47502e-01
    3.90000e+01    1.00000e+00    0.00000e+00    0.00000e+00    5.18569e+00    2.30482e+00    5.76145e-01    5.76253e-01    5.76145e-01    5.76193e-01    1.44051e-01    1.44017e-01    1.44051e-01    1.44017e-01    2.93280e+00    9.90007e-01    7.33201e-01    5.43387e-01    7.33201e-01    2.47502e-01    1.35847e-01    1.35847e-01    2.47502e-01
    0.00000e+00    2.00000e+00    0.00000e+00    0.00000e+00    5.19921e+00    2.31064e+00    5.77733e-01    5.77728e-01    5.77733e-01    5.77634e-01    1.44458e-01    1.44414e-01    1.44458e-01    1.44414e-01    2.93280e+00    9.90007e-01    7.33201e-01    5.43387e-01    7.33201e-01    2.47502e-01    1.35847e-01    1.35847e-01    2.47502e-01
    1.00000e+00    2.00000e+00   -1.25381e-04   -5.45049e-05    5.19909e+00    2.31059e+00    5.77600e-01    5.77450e-01    5.78038e-01    5.77647e-01    1.44368e-01    1.44475e-01    1.44518e-01    1.44411e-01    2.93280e+00    9.90007e-01    7.33201e-01    5.43387e-01    7.33201e-01    2.47502e-01    1.35847e-01    1.35847e-01    2.47502e-01
    2.00000e+00    2.00000e+00   -3.19252e-04   -2.51955e-06    5.19897e+00    2.31053e+00    5.77280e-01    5.77509e-01    5.78396e-01    5.77519e-01    1.44322e-01    1.44544e-01    1.44596e-01    1.44273e-01    2.93280e+00    9.90007e-01    7.33201e-01    5.43387e-01    7.33201e-01    2.47502e-01    1.35847e-01    1.35847e-01    2.47502e-01
    3.00000e+00    2.00000e+00   -5.61929e-04    7.17600e-05    5.19878e+00    2.31045e+00    5.76901e-01    5.77560e-01    5.78858e-01    5.77303e-01    1.44254e-01    1.44660e-01    1.44678e-01    1.44119e-01    2.93280e+00    9.90007e-01    7.33201e-01    5.43387e-01    7.33201e-01    2.47502e-01    1.35847e-01    1.35847e-01    2.47502e-01
    4.00000e+00    2.00000e+00   -8.69237e-04    1.50667e-04    5.19850e+00    2.31032e+00    5.76402e-01    5.77603e-01    5.79421e-01    5.77073e-01    1.44189e-01    1.44776e-01    1.44813e-01    1.43900e-01    2.93280e+00    9.90007e-01    7.33201e-01    5.43387e-01    7.33201e-01    2.47502e-01    1.35847e-01    1.35847e-01    2.47502e-01
    5.00000e+00    2.00000e+00   -1.22463e-03    2.08496e-04    5.19819e+00    2.31018e+00    5.75780e-01    5.77627e-01    5.80040e-01    5.76900e-01    1.44103e-01    1.44906e-01    1.44978e-01    1.43674e-01    2.93280e+00    9.90007e-01    7.33201e-01    5.43387e-01    7.33201e-01    2.47502e-01    1.35847e-01    1.35847e-01    2.47502e-01