TITLE="LBM output"
VARIABLES = "X", "Y", "U","V","density","f0","f1","f2","f3","f4","f5","f6","f7","f8","feq0","feq1","feq2","feq3","feq4","feq5","feq6","feq7","feq8",
ZONE T = "fluid", I=40, J=40, F=POINT
SOLUTIONTIME=614
    0.00000e+00    0.00000e+00    0.00000e+00    0.00000e+00    5.06181e+00    2.24942e+00    5.62435e-01    5.62432e-01    5.62435e-01    5.62432e-01    1.40740e-01    1.40589e-01    1.40740e-01    1.40589e-01    2.87097e+00    9.69134e-01    7.17742e-01    5.31931e-01    7.17742e-01    2.42284e-01    1.32983e-01    1.32983e-01    2.42284e-01
    1.00000e+00    0.00000e+00    0.00000e+00    0.00000e+00    5.06293e+00    2.24991e+00    5.62294e-01    5.62720e-01    5.62531e-01    5.62720e-01    1.40758e-01    1.40620e-01    1.40758e-01    1.40620e-01    2.87097e+00    9.69134e-01    7.17742e-01    5.31931e-01    7.17742e-01    2.42284e-01    1.32983e-01    1.32983e-01    2.42284e-01
    2.00000e+00    0.00000e+00    0.00000e+00    0.00000e+00    5.06325e+00    2.25005e+00    5.62615e-01    5.62670e-01    5.62487e-01    5.62670e-01    1.40818e-01    1.40565e-01    1.40818e-01    1.40565e-01    2.87097e+00    9.69134e-01    7.17742e-01    5.31931e-01    7.17742e-01    2.42284e-01    1.32983e-01    1.32983e-01    2.42284e-01
    3.00000e+00    0.00000e+00    0.00000e+00    0.00000e+00    5.06340e+00    2.25011e+00    5.62431e-01    5.62769e-01    5.62580e-01    5.62769e-01    1.40879e-01    1.40490e-01    1.40879e-01    1.40490e-01    2.87097e+00    9.69134e-01    7.17742e-01    5.31931e-01    7.17742e-01    2.42284e-01    1.32983e-01    1.32983e-01    2.42284e-01
    4.00000e+00    0.00000e+00    0.00000e+00    0.00000e+00    5.06397e+00    2.25036e+00    5.62604e-01    5.62776e-01    5.62606e-01    5.62776e-01    1.40947e-01    1.40473e-01    1.40947e-01    1.40473e-01    2.87097e+00    9.69134e-01    7.17742e-01    5.31931e-01    7.17742e-01    2.42284e-01    1.32983e-01    1.32983e-01    2.42284e-01
    5.00000e+00    0.00000e+00    0.00000e+00    0.00000e+00    5.06439e+00    2.25055e+00    5.62581e-01    5.62837e-01    5.62679e-01    5.62837e-01    1.41033e-01    1.40417e-01    1.41033e-01    1.40417e-01    2.87097e+00    9.69134e-01    7.17742e-01    5.31931e-01    7.17742e-01    2.42284e-01    1.32983e-01    1.32983e-01    2.42284e-01
    6.00000e+00    0.00000e+00    0.00000e+00    0.00000e+00    5.06499e+00    2.25082e+00    5.62684e-01    5.62894e-01    5.62739e-01    5.62894e-01    1.41111e-01    1.40366e-01    1.41111e-01    1.40366e-01    2.87097e+00    9.69134e-01    7.17742e-01    5.31931e-01    7.17742e-01    2.42284e-01    1.32983e-01    1.32983e-01    2.42284e-01
    7.00000e+00    0.00000e+00    0.00000e+00    0.00000e+00    5.06556e+00    2.25108e+00    5.62724e-01    5.62966e-01    5.62811e-01    5.62966e-01    1.41188e-01    1.40318e-01    1.41188e-01    1.40318e-01    2.87097e+00    9.69134e-01    7.17742e-01    5.31931e-01    7.17742e-01    2.42284e-01    1.32983e-01    1.32983e-01    2.42284e-01
    8.00000e+00    0.00000e+00    0.00000e+00    0.00000e+00    5.06616e+00    2.25136e+00    5.62809e-01    5.63028e-01    5.62874e-01    5.63028e-01    1.41263e-01    1.40269e-01    1.41263e-01    1.40269e-01    2.87097e+00    9.69134e-01    7.17742e-01    5.31931e-01    7.17742e-01    2.42284e-01    1.32983e-01    1.32983e-01    2.42284e-01
    9.00000e+00    0.00000e+00    0.00000e+00    0.00000e+00    5.06671e+00    2.25161e+00    5.62865e-01    5.63088e-01    5.62937e-01    5.63088e-01    1.41331e-01    1.40228e-01    1.41331e-01    1.40228e-01    2.87097e+00    9.69134e-01    7.17742e-01    5.31931e-01    7.17742e-01    2.42284e-01    1.32983e-01    1.32983e-01    2.42284e-01
    1.00000e+01    0.00000e+00    0.00000e+00    0.00000e+00    5.06721e+00    2.25184e+00    5.62934e-01    5.63140e-01    5.62989e-01    5.63140e-01    1.41393e-01    1.40187e-01    1.41393e-01    1.40187e-01    2.87097e+00    9.69134e-01    7.17742e-01    5.31931e-01    7.17742e-01    2.42284e-01    1.32983e-01    1.32983e-01    2.42284e-01
    1.10000e+01    0.00000e+00    0.00000e+00    0.00000e+00    5.06761e+00    2.25204e+00    5.62984e-01    5.63182e-01    5.63031e-01    5.63182e-01    1.41448e-01    1.40150e-01    1.41448e-01    1.40150e-01    2.87097e+00    9.69134e-01    7.17742e-01    5.31931e-01    7.17742e-01    2.42284e-01    1.32983e-01    1.32983e-01    2.42284e-01
    1.20000e+01    0.00000e+00    0.00000e+00    0.00000e+00    5.06792e+00    2.25218e+00    5.63030e-01    5.63211e-01    5.63062e-01    5.63211e-01    1.41496e-01    1.40115e-01    1.41496e-01    1.40115e-01    2.87097e+00    9.69134e-01    7.17742e-01    5.31931e-01    7.17742e-01    2.42284e-01    1.32983e-01    1.32983e-01    2.42284e-01
    1.30000e+01    0.00000e+00    0.00000e+00    0.00000e+00    5.06812e+00    2.25229e+00    5.63061e-01    5.63228e-01    5.63081e-01    5.63228e-01    1.41535e-01    1.40082e-01    1.41535e-01    1.40082e-01    2.87097e+00    9.69134e-01    7.17742e-01    5.31931e-01    7.17742e-01    2.42284e-01    1.32983e-01    1.32983e-01    2.42284e-01
    1.40000e+01    0.00000e+00    0.00000e+00    0.00000e+00    5.06822e+00    2.25234e+00    5.63082e-01    5.63232e-01    5.63088e-01    5.63232e-01    1.41569e-01    1.40050e-01    1.41569e-01    1.40050e-01    2.87097e+00    9.69134e-01    7.17742e-01    5.31931e-01    7.17742e-01    2.42284e-01    1.32983e-01    1.32983e-01    2.42284e-01
    1.50000e+01    0.00000e+00    0.00000e+00    0.00000e+00    5.06822e+00    2.25236e+00    5.63091e-01    5.63225e-01    5.63086e-01    5.63225e-01    1.41597e-01    1.40020e-01    1.41597e-01    1.40020e-01    2.87097e+00    9.69134e-01    7.17742e-01    5.31931e-01    7.17742e-01    2.42284e-01    1.32983e-01    1.32983e-01    2.42284e-01
    1.60000e+01    0.00000e+00    0.00000e+00    0.00000e+00    5.06815e+00    2.25234e+00    5.63090e-01    5.63209e-01    5.63078e-01    5.63209e-01    1.41619e-01    1.39991e-01    1.41619e-01    1.39991e-01    2.87097e+00    9.69134e-01    7.17742e-01    5.31931e-01    7.17742e-01    2.42284e-01    1.32983e-01    1.32983e-01    2.42284e-01
    1.70000e+01    0.00000e+00    0.00000e+00    0.00000e+00    5.06803e+00    2.25230e+00    5.63083e-01    5.63188e-01    5.63066e-01    5.63188e-01    1.41637e-01    1.39964e-01    1.41637e-01    1.39964e-01    2.87097e+00    9.69134e-01    7.17742e-01    5.31931e-01    7.17742e-01    2.42284e-01    1.32983e-01    1.32983e-01    2.42284e-01
    1.80000e+01    0.00000e+00    0.00000e+00    0.00000e+00    5.06789e+00    2.25225e+00    5.63072e-01    5.63165e-01    5.63055e-01    5.63165e-01    1.41652e-01    1.39940e-01    1.41652e-01    1.39940e-01    2.87097e+00    9.69134e-01    7.17742e-01    5.31931e-01    7.17742e-01    2.42284e-01    1.32983e-01    1.32983e-01    2.42284e-01
    1.90000e+01    0.00000e+00    0.00000e+00    0.00000e+00    5.06778e+00    2.25222e+00    5.63060e-01    5.63143e-01    5.63049e-01    5.63143e-01    1.41664e-01    1.39920e-01    1.41664e-01    1.39920e-01    2.87097e+00    9.69134e-01    7.17742e-01    5.31931e-01    7.17742e-01    2.42284e-01    1.32983e-01    1.32983e-01    2.42284e-01
    2.00000e+01    0.00000e+00    0.00000e+00    0.00000e+00    5.06773e+00    2.25221e+00    5.63053e-01    5.63129e-01    5.63051e-01    5.63129e-01    1.41674e-01    1.39904e-01    1.41674e-01    1.39904e-01    2.87097e+00    9.69134e-01    7.17742e-01    5.31931e-01    7.17742e-01    2.42284e-01    1.32983e-01    1.32983e-01    2.42284e-01
    2.10000e+01    0.00000e+00    0.00000e+00    0.00000e+00    5.06777e+00    2.25224e+00    5.63054e-01    5.63125e-01    5.63066e-01    5.63125e-01    1.41684e-01    1.39895e-01    1.41684e-01    1.39895e-01    2.87097e+00    9.69134e-01    7.17742e-01    5.31931e-01    7.17742e-01    2.42284e-01    1.32983e-01    1.32983e-01    2.42284e-01
    2.20000e+01    0.00000e+00    0.00000e+00    0.00000e+00    5.06793e+00    2.25233e+00    5.63067e-01    5.63135e-01    5.63096e-01    5.63135e-01    1.41691e-01    1.39893e-01    1.41691e-01    1.39893e-01    2.87097e+00    9.69134e-01    7.17742e-01    5.31931e-01    7.17742e-01    2.42284e-01    1.32983e-01    1.32983e-01    2.42284e-01
    2.30000e+01    0.00000e+00    0.00000e+00    0.00000e+00    5.06823e+00    2.25248e+00    5.63095e-01    5.63162e-01    5.63143e-01    5.63162e-01    1.41696e-01    1.39900e-01    1.41696e-01    1.39900e-01    2.87097e+00    9.69134e-01    7.17742e-01    5.31931e-01    7.17742e-01    2.42284e-01    1.32983e-01    1.32983e-01    2.42284e-01
    2.40000e+01    0.00000e+00    0.00000e+00    0.00000e+00    5.06869e+00    2.25270e+00    5.63141e-01    5.63206e-01    5.63208e-01    5.63206e-01    1.41699e-01    1.39918e-01    1.41699e-01    1.39918e-01    2.87097e+00    9.69134e-01    7.17742e-01    5.31931e-01    7.17742e-01    2.42284e-01    1.32983e-01    1.32983e-01    2.42284e-01
    2.50000e+01    0.00000e+00    0.00000e+00    0.00000e+00    5.06930e+00    2.25298e+00    5.63203e-01    5.63268e-01    5.63289e-01    5.63268e-01    1.41698e-01    1.39946e-01    1.41698e-01    1.39946e-01    2.87097e+00    9.69134e-01    7.17742e-01    5.31931e-01    7.17742e-01    2.42284e-01    1.32983e-01    1.32983e-01    2.42284e-01
    2.60000e+01    0.00000e+00    0.00000e+00    0.00000e+00    5.07004e+00    2.25333e+00    5.63282e-01    5.63345e-01    5.63384e-01    5.63345e-01    1.41691e-01    1.39986e-01    1.41691e-01    1.39986e-01    2.87097e+00    9.69134e-01    7.17742e-01    5.31931e-01    7.17742e-01    2.42284e-01    1.32983e-01    1.32983e-01    2.42284e-01
    2.70000e+01    0.00000e+00    0.00000e+00    0.00000e+00    5.07090e+00    2.25373e+00    5.63376e-01    5.63435e-01    5.63489e-01    5.63435e-01    1.41679e-01    1.40037e-01    1.41679e-01    1.40037e-01    2.87097e+00    9.69134e-01    7.17742e-01    5.31931e-01    7.17742e-01    2.42284e-01    1.32983e-01    1.32983e-01    2.42284e-01
    2.80000e+01    0.00000e+00    0.00000e+00    0.00000e+00    5.07183e+00    2.25416e+00    5.63481e-01    5.63533e-01    5.63601e-01    5.63533e-01    1.41658e-01    1.40100e-01    1.41658e-01    1.40100e-01    2.87097e+00    9.69134e-01    7.17742e-01    5.31931e-01    7.17742e-01    2.42284e-01    1.32983e-01    1.32983e-01    2.42284e-01
    2.90000e+01    0.00000e+00    0.00000e+00    0.00000e+00    5.07278e+00    2.25461e+00    5.63592e-01    5.63635e-01    5.63712e-01    5.63635e-01    1.41628e-01    1.40172e-01    1.41628e-01    1.40172e-01    2.87097e+00    9.69134e-01    7.17742e-01    5.31931e-01    7.17742e-01    2.42284e-01    1.32983e-01    1.32983e-01    2.42284e-01
    3.00000e+01    0.00000e+00    0.00000e+00    0.00000e+00    5.07373e+00    2.25505e+00    5.63704e-01    5.63734e-01    5.63823e-01    5.63734e-01    1.41588e-01    1.40254e-01    1.41588e-01    1.40254e-01    2.87097e+00    9.69134e-01    7.17742e-01    5.31931e-01    7.17742e-01    2.42284e-01    1.32983e-01    1.32983e-01    2.42284e-01
    3.10000e+01    0.00000e+00    0.00000e+00    0.00000e+00    5.07462e+00    2.25547e+00    5.63814e-01    5.63828e-01    5.63918e-01    5.63828e-01    1.41540e-01    1.40343e-01    1.41540e-01    1.40343e-01    2.87097e+00    9.69134e-01    7.17742e-01    5.31931e-01    7.17742e-01    2.42284e-01    1.32983e-01    1.32983e-01    2.42284e-01
    3.20000e+01    0.00000e+00    0.00000e+00    0.00000e+00    5.07543e+00    2.25585e+00    5.63914e-01    5.63910e-01    5.64014e-01    5.63910e-01    1.41479e-01    1.40437e-01    1.41479e-01    1.40437e-01    2.87097e+00    9.69134e-01    7.17742e-01    5.31931e-01    7.17742e-01    2.42284e-01    1.32983e-01    1.32983e-01    2.42284e-01
    3.30000e+01    0.00000e+00    0.00000e+00    0.00000e+00    5.07610e+00    2.25616e+00    5.64003e-01    5.63984e-01    5.64071e-01    5.63984e-01    1.41415e-01    1.40532e-01    1.41415e-01    1.40532e-01    2.87097e+00    9.69134e-01    7.17742e-01    5.31931e-01    7.17742e-01    2.42284e-01    1.32983e-01    1.32983e-01    2.42284e-01
    3.40000e+01    0.00000e+00    0.00000e+00    0.00000e+00    5.07669e+00    2.25644e+00    5.64075e-01    5.64036e-01    5.64159e-01    5.64036e-01    1.41342e-01    1.40627e-01    1.41342e-01    1.40627e-01    2.87097e+00    9.69134e-01    7.17742e-01    5.31931e-01    7.17742e-01    2.42284e-01    1.32983e-01    1.32983e-01    2.42284e-01
    3.50000e+01    0.00000e+00    0.00000e+00    0.00000e+00    5.07702e+00    2.25660e+00    5.64141e-01    5.64079e-01    5.64137e-01    5.64079e-01    1.41268e-01    1.40723e-01    1.41268e-01    1.40723e-01    2.87097e+00    9.69134e-01    7.17742e-01    5.31931e-01    7.17742e-01    2.42284e-01    1.32983e-01    1.32983e-01    2.42284e-01
    3.60000e+01    0.00000e+00    0.00000e+00    0.00000e+00    5.07743e+00    2.25680e+00    5.64162e-01    5.64073e-01    5.64277e-01    5.64073e-01    1.41218e-01    1.40805e-01    1.41218e-01    1.40805e-01    2.87097e+00    9.69134e-01    7.17742e-01    5.31931e-01    7.17742e-01    2.42284e-01    1.32983e-01    1.32983e-01    2.42284e-01
    3.70000e+01    0.00000e+00    0.00000e+00    0.00000e+00    5.07745e+00    2.25682e+00    5.64231e-01    5.64137e-01    5.64110e-01    5.64137e-01    1.41136e-01    1.40876e-01    1.41136e-01    1.40876e-01    2.87097e+00    9.69134e-01    7.17742e-01    5.31931e-01    7.17742e-01    2.42284e-01    1.32983e-01    1.32983e-01    2.42284e-01
    3.80000e+01    0.00000e+00    0.00000e+00    0.00000e+00    5.07752e+00    2.25685e+00    5.64182e-01    5.64073e-01    5.64339e-01    5.64073e-01    1.41052e-01    1.40948e-01    1.41052e-01    1.40948e-01    2.87097e+00    9.69134e-01    7.17742e-01    5.31931e-01    7.17742e-01    2.42284e-01    1.32983e-01    1.32983e-01    2.42284e-01
    3.90000e+01    0.00000e+00    0.00000e+00    0.00000e+00    5.07824e+00    2.25718e+00    5.64239e-01    5.64245e-01    5.64239e-01    5.64245e-01    1.41074e-01    1.40971e-01    1.41074e-01    1.40971e-01    2.87097e+00    9.69134e-01    7.17742e-01    5.31931e-01    7.17742e-01    2.42284e-01    1.32983e-01    1.32983e-01    2.42284e-01
    0.00000e+00    1.00000e+00    0.00000e+00    0.00000e+00    5.06295e+00    2.24992e+00    5.62747e-01    5.62297e-01    5.62747e-01    5.62541e-01    1.40733e-01    1.40618e-01    1.40733e-01    1.40618e-01    2.87097e+00    9.69134e-01    7.17742e-01    5.31931e-01    7.17742e-01    2.42284e-01    1.32983e-01    1.32983e-01    2.42284e-01
    1.00000e+00    1.00000e+00   -2.41605e-04   -1.64755e-04    5.06298e+00    2.24993e+00    5.62275e-01    5.62292e-01    5.63063e-01    5.62802e-01    1.40474e-01    1.40676e-01    1.40853e-01    1.40621e-01    2.87097e+00    9.69134e-01    7.17742e-01    5.31931e-01    7.17742e-01    2.42284e-01    1.32983e-01    1.32983e-01    2.42284e-01
    2.00000e+00    1.00000e+00   -3.97192e-04   -1.29809e-04    5.06323e+00    2.25003e+00    5.61934e-01    5.62392e-01    5.63307e-01    5.62793e-01    1.40514e-01    1.40741e-01    1.40961e-01    1.40550e-01    2.87097e+00    9.69134e-01    7.17742e-01    5.31931e-01    7.17742e-01    2.42284e-01    1.32983e-01    1.32983e-01    2.42284e-01
    3.00000e+00    1.00000e+00   -5.57949e-04   -1.37426e-04    5.06358e+00    2.25019e+00    5.61787e-01    5.62343e-01    5.63694e-01    5.62788e-01    1.40483e-01    1.40781e-01    1.41068e-01    1.40448e-01    2.87097e+00    9.69134e-01    7.17742e-01    5.31931e-01    7.17742e-01    2.42284e-01    1.32983e-01    1.32983e-01    2.42284e-01
    4.00000e+00    1.00000e+00   -7.64409e-04   -1.11261e-04    5.06401e+00    2.25038e+00    5.61494e-01    5.62449e-01    5.64097e-01    5.62788e-01    1.40443e-01    1.40846e-01    1.41189e-01    1.40325e-01    2.87097e+00    9.69134e-01    7.17742e-01    5.31931e-01    7.17742e-01    2.42284e-01    1.32983e-01    1.32983e-01    2.42284e-01
    5.00000e+00    1.00000e+00   -9.82930e-04   -1.03741e-04    5.06449e+00    2.25060e+00    5.61193e-01    5.62484e-01    5.64541e-01    5.62804e-01    1.40418e-01    1.40916e-01    1.41335e-01    1.40204e-01    2.87097e+00    9.69134e-01    7.17742e-01    5.31931e-01    7.17742e-01    2.42284e-01    1.32983e-01    1.32983e-01    2.42284e-01
    6.00000e+00    1.00000e+00   -1.20680e-03   -1.04071e-04    5.06504e+00    2.25084e+00    5.60869e-01    5.62559e-01    5.64977e-01    5.62877e-01    1.40371e-01    1.40983e-01    1.41477e-01    1.40086e-01    2.87097e+00    9.69134e-01    7.17742e-01    5.31931e-01    7.17742e-01    2.42284e-01    1.32983e-01    1.32983e-01    2.42284e-01
    7.00000e+00    1.00000e+00   -1.42443e-03   -1.03488e-04    5.06562e+00    2.25111e+00    5.60560e-01    5.62618e-01    5.65411e-01    5.62933e-01    1.40339e-01    1.41053e-01    1.41626e-01    1.39976e-01    2.87097e+00    9.69134e-01    7.17742e-01    5.31931e-01    7.17742e-01    2.42284e-01    1.32983e-01    1.32983e-01    2.42284e-01
    8.00000e+00    1.00000e+00   -1.63664e-03   -1.01663e-04    5.06620e+00    2.25137e+00    5.60261e-01    5.62690e-01    5.65832e-01    5.62998e-01    1.40306e-01    1.41115e-01    1.41770e-01    1.39858e-01    2.87097e+00    9.69134e-01    7.17742e-01    5.31931e-01    7.17742e-01    2.42284e-01    1.32983e-01    1.32983e-01    2.42284e-01
    9.00000e+00    1.00000e+00   -1.83951e-03   -1.01468e-04    5.06674e+00    2.25162e+00    5.59968e-01    5.62755e-01    5.66230e-01    5.63063e-01    1.40276e-01    1.41175e-01    1.41909e-01    1.39748e-01    2.87097e+00    9.69134e-01    7.17742e-01    5.31931e-01    7.17742e-01    2.42284e-01    1.32983e-01    1.32983e-01    2.42284e-01
    1.00000e+01    1.00000e+00   -2.02941e-03   -1.00739e-04    5.06722e+00    2.25184e+00    5.59690e-01    5.62817e-01    5.66597e-01    5.63122e-01    1.40248e-01    1.41228e-01    1.42039e-01    1.39642e-01    2.87097e+00    9.69134e-01    7.17742e-01    5.31931e-01    7.17742e-01    2.42284e-01    1.32983e-01    1.32983e-01    2.42284e-01
    1.10000e+01    1.00000e+00   -2.20487e-03   -9.96241e-05    5.06762e+00    2.25203e+00    5.59427e-01    5.62869e-01    5.66930e-01    5.63171e-01    1.40223e-01    1.41275e-01    1.42160e-01    1.39541e-01    2.87097e+00    9.69134e-01    7.17742e-01    5.31931e-01    7.17742e-01    2.42284e-01    1.32983e-01    1.32983e-01    2.42284e-01
    1.20000e+01    1.00000e+00   -2.36568e-03   -9.80075e-05    5.06793e+00    2.25217e+00    5.59178e-01    5.62913e-01    5.67227e-01    5.63211e-01    1.40199e-01    1.41314e-01    1.42269e-01    1.39444e-01    2.87097e+00    9.69134e-01    7.17742e-01    5.31931e-01    7.17742e-01    2.42284e-01    1.32983e-01    1.32983e-01    2.42284e-01
    1.30000e+01    1.00000e+00   -2.51142e-03   -9.59127e-05    5.06813e+00    2.25227e+00    5.58943e-01    5.62946e-01    5.67487e-01    5.63237e-01    1.40176e-01    1.41348e-01    1.42366e-01    1.39354e-01    2.87097e+00    9.69134e-01    7.17742e-01    5.31931e-01    7.17742e-01    2.42284e-01    1.32983e-01    1.32983e-01    2.42284e-01
    1.40000e+01    1.00000e+00   -2.64190e-03   -9.31340e-05    5.06823e+00    2.25233e+00    5.58723e-01    5.62968e-01    5.67709e-01    5.63251e-01    1.40153e-01    1.41376e-01    1.42450e-01    1.39269e-01    2.87097e+00    9.69134e-01    7.17742e-01    5.31931e-01    7.17742e-01    2.42284e-01    1.32983e-01    1.32983e-01    2.42284e-01
    1.50000e+01    1.00000e+00   -2.75721e-03   -9.03576e-05    5.06823e+00    2.25234e+00    5.58518e-01    5.62981e-01    5.67895e-01    5.63256e-01    1.40131e-01    1.41399e-01    1.42521e-01    1.39192e-01    2.87097e+00    9.69134e-01    7.17742e-01    5.31931e-01    7.17742e-01    2.42284e-01    1.32983e-01    1.32983e-01    2.42284e-01
    1.60000e+01    1.00000e+00   -2.85741e-03   -8.73472e-05    5.06817e+00    2.25232e+00    5.58331e-01    5.62987e-01    5.68048e-01    5.63253e-01    1.40109e-01    1.41417e-01    1.42580e-01    1.39123e-01    2.87097e+00    9.69134e-01    7.17742e-01    5.31931e-01    7.17742e-01    2.42284e-01    1.32983e-01    1.32983e-01    2.42284e-01
    1.70000e+01    1.00000e+00   -2.94210e-03   -8.37900e-05    5.06807e+00    2.25229e+00    5.58165e-01    5.62988e-01    5.68169e-01    5.63243e-01    1.40089e-01    1.41432e-01    1.42627e-01    1.39064e-01    2.87097e+00    9.69134e-01    7.17742e-01    5.31931e-01    7.17742e-01    2.42284e-01    1.32983e-01    1.32983e-01    2.42284e-01
    1.80000e+01    1.00000e+00   -3.01077e-03   -8.06591e-05    5.06795e+00    2.25225e+00    5.58024e-01    5.62988e-01    5.68261e-01    5.63235e-01    1.40070e-01    1.41445e-01    1.42662e-01    1.39015e-01    2.87097e+00    9.69134e-01    7.17742e-01    5.31931e-01    7.17742e-01    2.42284e-01    1.32983e-01    1.32983e-01    2.42284e-01
    1.90000e+01    1.00000e+00   -3.06266e-03   -7.81401e-05    5.06785e+00    2.25222e+00    5.57912e-01    5.62991e-01    5.68326e-01    5.63231e-01    1.40053e-01    1.41455e-01    1.42685e-01    1.38979e-01    2.87097e+00    9.69134e-01    7.17742e-01    5.31931e-01    7.17742e-01    2.42284e-01    1.32983e-01    1.32983e-01    2.42284e-01
    2.00000e+01    1.00000e+00   -3.09662e-03   -7.55281e-05    5.06781e+00    2.25221e+00    5.57836e-01    5.63000e-01    5.68366e-01    5.63234e-01    1.40041e-01    1.41465e-01    1.42697e-01    1.38958e-01    2.87097e+00    9.69134e-01    7.17742e-01    5.31931e-01    7.17742e-01    2.42284e-01    1.32983e-01    1.32983e-01    2.42284e-01
    2.10000e+01    1.00000e+00   -3.11126e-03   -7.35957e-05    5.06786e+00    2.25225e+00    5.57801e-01    5.63019e-01    5.68381e-01    5.63249e-01    1.40034e-01    1.41475e-01    1.42699e-01    1.38952e-01    2.87097e+00    9.69134e-01    7.17742e-01    5.31931e-01    7.17742e-01    2.42284e-01    1.32983e-01    1.32983e-01    2.42284e-01
    2.20000e+01    1.00000e+00   -3.10507e-03   -7.29882e-05    5.06803e+00    2.25234e+00    5.57812e-01    5.63051e-01    5.68373e-01    5.63283e-01    1.40033e-01    1.41483e-01    1.42690e-01    1.38964e-01    2.87097e+00    9.69134e-01    7.17742e-01    5.31931e-01    7.17742e-01    2.42284e-01    1.32983e-01    1.32983e-01    2.42284e-01
    2.30000e+01    1.00000e+00   -3.07623e-03   -7.27085e-05    5.06833e+00    2.25249e+00    5.57875e-01    5.63098e-01    5.68341e-01    5.63333e-01    1.40040e-01    1.41491e-01    1.42670e-01    1.38995e-01    2.87097e+00    9.69134e-01    7.17742e-01    5.31931e-01    7.17742e-01    2.42284e-01    1.32983e-01    1.32983e-01    2.42284e-01
    2.40000e+01    1.00000e+00   -3.02287e-03   -7.27463e-05    5.06879e+00    2.25271e+00    5.57995e-01    5.63162e-01    5.68281e-01    5.63401e-01    1.40056e-01    1.41499e-01    1.42639e-01    1.39045e-01    2.87097e+00    9.69134e-01    7.17742e-01    5.31931e-01    7.17742e-01    2.42284e-01    1.32983e-01    1.32983e-01    2.42284e-01
    2.50000e+01    1.00000e+00   -2.94334e-03   -7.38002e-05    5.06939e+00    2.25300e+00    5.58173e-01    5.63242e-01    5.68192e-01    5.63489e-01    1.40081e-01    1.41503e-01    1.42595e-01    1.39116e-01    2.87097e+00    9.69134e-01    7.17742e-01    5.31931e-01    7.17742e-01    2.42284e-01    1.32983e-01    1.32983e-01    2.42284e-01
    2.60000e+01    1.00000e+00   -2.83612e-03   -7.48859e-05    5.07012e+00    2.25334e+00    5.58412e-01    5.63336e-01    5.68070e-01    5.63593e-01    1.40117e-01    1.41505e-01    1.42539e-01    1.39206e-01    2.87097e+00    9.69134e-01    7.17742e-01    5.31931e-01    7.17742e-01    2.42284e-01    1.32983e-01    1.32983e-01    2.42284e-01
    2.70000e+01    1.00000e+00   -2.70021e-03   -7.52457e-05    5.07095e+00    2.25373e+00    5.58710e-01    5.63443e-01    5.67909e-01    5.63706e-01    1.40163e-01    1.41502e-01    1.42469e-01    1.39315e-01    2.87097e+00    9.69134e-01    7.17742e-01    5.31931e-01    7.17742e-01    2.42284e-01    1.32983e-01    1.32983e-01    2.42284e-01
    2.80000e+01    1.00000e+00   -2.53555e-03   -7.50683e-05    5.07186e+00    2.25416e+00    5.59066e-01    5.63558e-01    5.67708e-01    5.63826e-01    1.40219e-01    1.41494e-01    1.42385e-01    1.39442e-01    2.87097e+00    9.69134e-01    7.17742e-01    5.31931e-01    7.17742e-01    2.42284e-01    1.32983e-01    1.32983e-01    2.42284e-01
    2.90000e+01    1.00000e+00   -2.34311e-03   -7.41159e-05    5.07280e+00    2.25460e+00    5.59475e-01    5.63677e-01    5.67464e-01    5.63946e-01    1.40284e-01    1.41478e-01    1.42286e-01    1.39583e-01    2.87097e+00    9.69134e-01    7.17742e-01    5.31931e-01    7.17742e-01    2.42284e-01    1.32983e-01    1.32983e-01    2.42284e-01
    3.00000e+01    1.00000e+00   -2.12496e-03   -7.10925e-05    5.07372e+00    2.25504e+00    5.59929e-01    5.63795e-01    5.67178e-01    5.64059e-01    1.40358e-01    1.41455e-01    1.42172e-01    1.39738e-01    2.87097e+00    9.69134e-01    7.17742e-01    5.31931e-01    7.17742e-01    2.42284e-01    1.32983e-01    1.32983e-01    2.42284e-01
    3.10000e+01    1.00000e+00   -1.88459e-03   -6.62791e-05    5.07460e+00    2.25545e+00    5.60419e-01    5.63906e-01    5.66851e-01    5.64158e-01    1.40439e-01    1.41424e-01    1.42046e-01    1.39900e-01    2.87097e+00    9.69134e-01    7.17742e-01    5.31931e-01    7.17742e-01    2.42284e-01    1.32983e-01    1.32983e-01    2.42284e-01
    3.20000e+01    1.00000e+00   -1.62824e-03   -5.82339e-05    5.07538e+00    2.25583e+00    5.60934e-01    5.64009e-01    5.66496e-01    5.64237e-01    1.40522e-01    1.41385e-01    1.41906e-01    1.40068e-01    2.87097e+00    9.69134e-01    7.17742e-01    5.31931e-01    7.17742e-01    2.42284e-01    1.32983e-01    1.32983e-01    2.42284e-01
    3.30000e+01    1.00000e+00   -1.36294e-03   -4.87978e-05    5.07606e+00    2.25615e+00    5.61459e-01    5.64093e-01    5.66115e-01    5.64291e-01    1.40611e-01    1.41343e-01    1.41767e-01    1.40236e-01    2.87097e+00    9.69134e-01    7.17742e-01    5.31931e-01    7.17742e-01    2.42284e-01    1.32983e-01    1.32983e-01    2.42284e-01
    3.40000e+01    1.00000e+00   -1.09341e-03   -3.77483e-05    5.07662e+00    2.25641e+00    5.61980e-01    5.64174e-01    5.65721e-01    5.64333e-01    1.40695e-01    1.41286e-01    1.41617e-01    1.40397e-01    2.87097e+00    9.69134e-01    7.17742e-01    5.31931e-01    7.17742e-01    2.42284e-01    1.32983e-01    1.32983e-01    2.42284e-01
    3.50000e+01    1.00000e+00   -8.32348e-04   -2.05383e-05    5.07702e+00    2.25661e+00    5.62491e-01    5.64213e-01    5.65337e-01    5.64321e-01    1.40782e-01    1.41245e-01    1.41470e-01    1.40553e-01    2.87097e+00    9.69134e-01    7.17742e-01    5.31931e-01    7.17742e-01    2.42284e-01    1.32983e-01    1.32983e-01    2.42284e-01
    3.60000e+01    1.00000e+00   -5.86673e-04    1.21343e-05    5.07732e+00    2.25675e+00    5.62955e-01    5.64303e-01    5.64970e-01    5.64286e-01    1.40858e-01    1.41190e-01    1.41318e-01    1.40686e-01    2.87097e+00    9.69134e-01    7.17742e-01    5.31931e-01    7.17742e-01    2.42284e-01    1.32983e-01    1.32983e-01    2.42284e-01
    3.70000e+01    1.00000e+00   -3.84336e-04    1.46942e-05    5.07752e+00    2.25685e+00    5.63391e-01    5.64260e-01    5.64719e-01    5.64246e-01    1.40918e-01    1.41139e-01    1.41199e-01    1.40798e-01    2.87097e+00    9.69134e-01    7.17742e-01    5.31931e-01    7.17742e-01    2.42284e-01    1.32983e-01    1.32983e-01    2.42284e-01
    3.80000e+01    1.00000e+00   -2.02248e-04    5.93083e-05    5.07757e+00    2.25688e+00    5.63694e-01    5.64328e-01    5.64367e-01    5.64172e-01    1.40985e-01    1.41157e-01    1.41089e-01    1.40907e-01    2.87097e+00    9.69134e-01    7.17742e-01    5.31931e-01    7.17742e-01    2.42284e-01    1.32983e-01    1.32983e-01    2.42284e-01
    3.90000e+01    1.00000e+00    0.00000e+00    0.00000e+00    5.07749e+00    2.25684e+00    5.64016e-01    5.64336e-01    5.64016e-01    5.64166e-01    1.41053e-01    1.41004e-01    1.41053e-01    1.41004e-01    2.87097e+00    9.69134e-01    7.17742e-01    5.31931e-01    7.17742e-01    2.42284e-01    1.32983e-01    1.32983e-01    2.42284e-01
    0.00000e+00    2.00000e+00    0.00000e+00    0.00000e+00    5.06325e+00    2.25004e+00    5.62701e-01    5.62618e-01    5.62701e-01    5.62473e-01    1.40723e-01    1.40636e-01    1.40723e-01    1.40636e-01    2.87097e+00    9.69134e-01    7.17742e-01    5.31931e-01    7.17742e-01    2.42284e-01    1.32983e-01    1.32983e-01    2.42284e-01
    1.00000e+00    2.00000e+00   -2.43464e-04   -1.55250e-04    5.06316e+00    2.25000e+00    5.62366e-01    5.62147e-01    5.63173e-01    5.62700e-01    1.40535e-01    1.40735e-01    1.40864e-01    1.40639e-01    2.87097e+00    9.69134e-01    7.17742e-01    5.31931e-01    7.17742e-01    2.42284e-01    1.32983e-01    1.32983e-01    2.42284e-01
    2.00000e+00    2.00000e+00   -5.09719e-04   -1.53484e-04    5.06338e+00    2.25010e+00    5.61893e-01    5.62219e-01    5.63629e-01    5.62760e-01    1.40436e-01    1.40835e-01    1.40976e-01    1.40530e-01    2.87097e+00    9.69134e-01    7.17742e-01    5.31931e-01    7.17742e-01    2.42284e-01    1.32983e-01    1.32983e-01    2.42284e-01
    3.00000e+00    2.00000e+00   -7.80215e-04   -1.12182e-04    5.06371e+00    2.25024e+00    5.61518e-01    5.62304e-01    5.64155e-01    5.62691e-01    1.40329e-01    1.40979e-01    1.41076e-01    1.40412e-01    2.87097e+00    9.69134e-01    7.17742e-01    5.31931e-01    7.17742e-01    2.42284e-01    1.32983e-01    1.32983e-01    2.42284e-01
    4.00000e+00    2.00000e+00   -1.08820e-03   -6.98803e-05    5.06408e+00    2.25041e+00    5.61074e-01    5.62382e-01    5.64752e-01    5.62625e-01    1.40245e-01    1.41117e-01    1.41217e-01    1.40256e-01    2.87097e+00    9.69134e-01    7.17742e-01    5.31931e-01    7.17742e-01    2.42284e-01    1.32983e-01    1.32983e-01    2.42284e-01
    5.00000e+00    2.00000e+00   -1.41442e-03   -4.21690e-05    5.06458e+00    2.25063e+00    5.60577e-01    5.62471e-01    5.65366e-01    5.62626e-01    1.40164e-01    1.41259e-01    1.41381e-01    1.40101e-01    2.87097e+00    9.69134e-01    7.17742e-01    5.31931e-01    7.17742e-01    2.42284e-01    1.32983e-01    1.32983e-01    2.42284e-01