TITLE="LBM output"
VARIABLES = "X", "Y", "U","V","density","f0","f1","f2","f3","f4","f5","f6","f7","f8","feq0","feq1","feq2","feq3","feq4","feq5","feq6","feq7","feq8",
ZONE T = "fluid", I=40, J=40, F=POINT
SOLUTIONTIME=1059
    0.00000e+00    0.00000e+00    0.00000e+00    0.00000e+00    5.13040e+00    2.28016e+00    5.70044e-01    5.70041e-01    5.70044e-01    5.70041e-01    1.42522e-01    1.42510e-01    1.42522e-01    1.42510e-01    2.88969e+00    9.75454e-01    7.22423e-01    5.35400e-01    7.22423e-01    2.43864e-01    1.33850e-01    1.33850e-01    2.43864e-01
    1.00000e+00    0.00000e+00    0.00000e+00    0.00000e+00    5.13039e+00    2.28016e+00    5.70037e-01    5.70064e-01    5.70035e-01    5.70064e-01    1.42502e-01    1.42513e-01    1.42502e-01    1.42513e-01    2.88969e+00    9.75454e-01    7.22423e-01    5.35400e-01    7.22423e-01    2.43864e-01    1.33850e-01    1.33850e-01    2.43864e-01
    2.00000e+00    0.00000e+00    0.00000e+00    0.00000e+00    5.13028e+00    2.28011e+00    5.70045e-01    5.70039e-01    5.70020e-01    5.70039e-01    1.42516e-01    1.42500e-01    1.42516e-01    1.42500e-01    2.88969e+00    9.75454e-01    7.22423e-01    5.35400e-01    7.22423e-01    2.43864e-01    1.33850e-01    1.33850e-01    2.43864e-01
    3.00000e+00    0.00000e+00    0.00000e+00    0.00000e+00    5.13019e+00    2.28006e+00    5.70008e-01    5.70047e-01    5.70011e-01    5.70047e-01    1.42526e-01    1.42483e-01    1.42526e-01    1.42483e-01    2.88969e+00    9.75454e-01    7.22423e-01    5.35400e-01    7.22423e-01    2.43864e-01    1.33850e-01    1.33850e-01    2.43864e-01
    4.00000e+00    0.00000e+00    0.00000e+00    0.00000e+00    5.13006e+00    2.27999e+00    5.70023e-01    5.70015e-01    5.69986e-01    5.70015e-01    1.42554e-01    1.42458e-01    1.42554e-01    1.42458e-01    2.88969e+00    9.75454e-01    7.22423e-01    5.35400e-01    7.22423e-01    2.43864e-01    1.33850e-01    1.33850e-01    2.43864e-01
    5.00000e+00    0.00000e+00    0.00000e+00    0.00000e+00    5.12990e+00    2.27992e+00    5.69976e-01    5.70007e-01    5.69972e-01    5.70007e-01    1.42588e-01    1.42423e-01    1.42588e-01    1.42423e-01    2.88969e+00    9.75454e-01    7.22423e-01    5.35400e-01    7.22423e-01    2.43864e-01    1.33850e-01    1.33850e-01    2.43864e-01
    6.00000e+00    0.00000e+00    0.00000e+00    0.00000e+00    5.12974e+00    2.27984e+00    5.69981e-01    5.69985e-01    5.69945e-01    5.69985e-01    1.42627e-01    1.42376e-01    1.42627e-01    1.42376e-01    2.88969e+00    9.75454e-01    7.22423e-01    5.35400e-01    7.22423e-01    2.43864e-01    1.33850e-01    1.33850e-01    2.43864e-01
    7.00000e+00    0.00000e+00    0.00000e+00    0.00000e+00    5.12954e+00    2.27974e+00    5.69940e-01    5.69974e-01    5.69923e-01    5.69974e-01    1.42668e-01    1.42328e-01    1.42668e-01    1.42328e-01    2.88969e+00    9.75454e-01    7.22423e-01    5.35400e-01    7.22423e-01    2.43864e-01    1.33850e-01    1.33850e-01    2.43864e-01
    8.00000e+00    0.00000e+00    0.00000e+00    0.00000e+00    5.12932e+00    2.27963e+00    5.69929e-01    5.69950e-01    5.69891e-01    5.69950e-01    1.42713e-01    1.42272e-01    1.42713e-01    1.42272e-01    2.88969e+00    9.75454e-01    7.22423e-01    5.35400e-01    7.22423e-01    2.43864e-01    1.33850e-01    1.33850e-01    2.43864e-01
    9.00000e+00    0.00000e+00    0.00000e+00    0.00000e+00    5.12906e+00    2.27951e+00    5.69889e-01    5.69926e-01    5.69860e-01    5.69926e-01    1.42758e-01    1.42218e-01    1.42758e-01    1.42218e-01    2.88969e+00    9.75454e-01    7.22423e-01    5.35400e-01    7.22423e-01    2.43864e-01    1.33850e-01    1.33850e-01    2.43864e-01
    1.00000e+01    0.00000e+00    0.00000e+00    0.00000e+00    5.12877e+00    2.27937e+00    5.69865e-01    5.69896e-01    5.69823e-01    5.69896e-01    1.42804e-01    1.42158e-01    1.42804e-01    1.42158e-01    2.88969e+00    9.75454e-01    7.22423e-01    5.35400e-01    7.22423e-01    2.43864e-01    1.33850e-01    1.33850e-01    2.43864e-01
    1.10000e+01    0.00000e+00    0.00000e+00    0.00000e+00    5.12845e+00    2.27922e+00    5.69824e-01    5.69864e-01    5.69784e-01    5.69864e-01    1.42849e-01    1.42098e-01    1.42849e-01    1.42098e-01    2.88969e+00    9.75454e-01    7.22423e-01    5.35400e-01    7.22423e-01    2.43864e-01    1.33850e-01    1.33850e-01    2.43864e-01
    1.20000e+01    0.00000e+00    0.00000e+00    0.00000e+00    5.12811e+00    2.27906e+00    5.69789e-01    5.69827e-01    5.69743e-01    5.69827e-01    1.42893e-01    1.42037e-01    1.42893e-01    1.42037e-01    2.88969e+00    9.75454e-01    7.22423e-01    5.35400e-01    7.22423e-01    2.43864e-01    1.33850e-01    1.33850e-01    2.43864e-01
    1.30000e+01    0.00000e+00    0.00000e+00    0.00000e+00    5.12774e+00    2.27890e+00    5.69746e-01    5.69789e-01    5.69701e-01    5.69789e-01    1.42935e-01    1.41976e-01    1.42935e-01    1.41976e-01    2.88969e+00    9.75454e-01    7.22423e-01    5.35400e-01    7.22423e-01    2.43864e-01    1.33850e-01    1.33850e-01    2.43864e-01
    1.40000e+01    0.00000e+00    0.00000e+00    0.00000e+00    5.12737e+00    2.27873e+00    5.69706e-01    5.69747e-01    5.69659e-01    5.69747e-01    1.42976e-01    1.41916e-01    1.42976e-01    1.41916e-01    2.88969e+00    9.75454e-01    7.22423e-01    5.35400e-01    7.22423e-01    2.43864e-01    1.33850e-01    1.33850e-01    2.43864e-01
    1.50000e+01    0.00000e+00    0.00000e+00    0.00000e+00    5.12700e+00    2.27857e+00    5.69664e-01    5.69706e-01    5.69619e-01    5.69706e-01    1.43013e-01    1.41859e-01    1.43013e-01    1.41859e-01    2.88969e+00    9.75454e-01    7.22423e-01    5.35400e-01    7.22423e-01    2.43864e-01    1.33850e-01    1.33850e-01    2.43864e-01
    1.60000e+01    0.00000e+00    0.00000e+00    0.00000e+00    5.12665e+00    2.27841e+00    5.69624e-01    5.69666e-01    5.69582e-01    5.69666e-01    1.43045e-01    1.41806e-01    1.43045e-01    1.41806e-01    2.88969e+00    9.75454e-01    7.22423e-01    5.35400e-01    7.22423e-01    2.43864e-01    1.33850e-01    1.33850e-01    2.43864e-01
    1.70000e+01    0.00000e+00    0.00000e+00    0.00000e+00    5.12633e+00    2.27827e+00    5.69587e-01    5.69628e-01    5.69549e-01    5.69628e-01    1.43073e-01    1.41759e-01    1.43073e-01    1.41759e-01    2.88969e+00    9.75454e-01    7.22423e-01    5.35400e-01    7.22423e-01    2.43864e-01    1.33850e-01    1.33850e-01    2.43864e-01
    1.80000e+01    0.00000e+00    0.00000e+00    0.00000e+00    5.12604e+00    2.27815e+00    5.69554e-01    5.69594e-01    5.69522e-01    5.69594e-01    1.43094e-01    1.41719e-01    1.43094e-01    1.41719e-01    2.88969e+00    9.75454e-01    7.22423e-01    5.35400e-01    7.22423e-01    2.43864e-01    1.33850e-01    1.33850e-01    2.43864e-01
    1.90000e+01    0.00000e+00    0.00000e+00    0.00000e+00    5.12580e+00    2.27805e+00    5.69526e-01    5.69565e-01    5.69501e-01    5.69565e-01    1.43108e-01    1.41689e-01    1.43108e-01    1.41689e-01    2.88969e+00    9.75454e-01    7.22423e-01    5.35400e-01    7.22423e-01    2.43864e-01    1.33850e-01    1.33850e-01    2.43864e-01
    2.00000e+01    0.00000e+00    0.00000e+00    0.00000e+00    5.12562e+00    2.27798e+00    5.69505e-01    5.69543e-01    5.69487e-01    5.69543e-01    1.43113e-01    1.41669e-01    1.43113e-01    1.41669e-01    2.88969e+00    9.75454e-01    7.22423e-01    5.35400e-01    7.22423e-01    2.43864e-01    1.33850e-01    1.33850e-01    2.43864e-01
    2.10000e+01    0.00000e+00    0.00000e+00    0.00000e+00    5.12550e+00    2.27794e+00    5.69490e-01    5.69527e-01    5.69480e-01    5.69527e-01    1.43111e-01    1.41660e-01    1.43111e-01    1.41660e-01    2.88969e+00    9.75454e-01    7.22423e-01    5.35400e-01    7.22423e-01    2.43864e-01    1.33850e-01    1.33850e-01    2.43864e-01
    2.20000e+01    0.00000e+00    0.00000e+00    0.00000e+00    5.12544e+00    2.27792e+00    5.69482e-01    5.69517e-01    5.69480e-01    5.69517e-01    1.43098e-01    1.41664e-01    1.43098e-01    1.41664e-01    2.88969e+00    9.75454e-01    7.22423e-01    5.35400e-01    7.22423e-01    2.43864e-01    1.33850e-01    1.33850e-01    2.43864e-01
    2.30000e+01    0.00000e+00    0.00000e+00    0.00000e+00    5.12544e+00    2.27794e+00    5.69481e-01    5.69515e-01    5.69486e-01    5.69515e-01    1.43075e-01    1.41681e-01    1.43075e-01    1.41681e-01    2.88969e+00    9.75454e-01    7.22423e-01    5.35400e-01    7.22423e-01    2.43864e-01    1.33850e-01    1.33850e-01    2.43864e-01
    2.40000e+01    0.00000e+00    0.00000e+00    0.00000e+00    5.12550e+00    2.27797e+00    5.69487e-01    5.69517e-01    5.69498e-01    5.69517e-01    1.43043e-01    1.41709e-01    1.43043e-01    1.41709e-01    2.88969e+00    9.75454e-01    7.22423e-01    5.35400e-01    7.22423e-01    2.43864e-01    1.33850e-01    1.33850e-01    2.43864e-01
    2.50000e+01    0.00000e+00    0.00000e+00    0.00000e+00    5.12559e+00    2.27803e+00    5.69499e-01    5.69525e-01    5.69514e-01    5.69525e-01    1.43003e-01    1.41748e-01    1.43003e-01    1.41748e-01    2.88969e+00    9.75454e-01    7.22423e-01    5.35400e-01    7.22423e-01    2.43864e-01    1.33850e-01    1.33850e-01    2.43864e-01
    2.60000e+01    0.00000e+00    0.00000e+00    0.00000e+00    5.12572e+00    2.27809e+00    5.69514e-01    5.69536e-01    5.69533e-01    5.69536e-01    1.42954e-01    1.41798e-01    1.42954e-01    1.41798e-01    2.88969e+00    9.75454e-01    7.22423e-01    5.35400e-01    7.22423e-01    2.43864e-01    1.33850e-01    1.33850e-01    2.43864e-01
    2.70000e+01    0.00000e+00    0.00000e+00    0.00000e+00    5.12587e+00    2.27817e+00    5.69533e-01    5.69549e-01    5.69554e-01    5.69549e-01    1.42900e-01    1.41856e-01    1.42900e-01    1.41856e-01    2.88969e+00    9.75454e-01    7.22423e-01    5.35400e-01    7.22423e-01    2.43864e-01    1.33850e-01    1.33850e-01    2.43864e-01
    2.80000e+01    0.00000e+00    0.00000e+00    0.00000e+00    5.12603e+00    2.27826e+00    5.69554e-01    5.69563e-01    5.69575e-01    5.69563e-01    1.42841e-01    1.41919e-01    1.42841e-01    1.41919e-01    2.88969e+00    9.75454e-01    7.22423e-01    5.35400e-01    7.22423e-01    2.43864e-01    1.33850e-01    1.33850e-01    2.43864e-01
    2.90000e+01    0.00000e+00    0.00000e+00    0.00000e+00    5.12619e+00    2.27834e+00    5.69575e-01    5.69577e-01    5.69596e-01    5.69577e-01    1.42779e-01    1.41986e-01    1.42779e-01    1.41986e-01    2.88969e+00    9.75454e-01    7.22423e-01    5.35400e-01    7.22423e-01    2.43864e-01    1.33850e-01    1.33850e-01    2.43864e-01
    3.00000e+01    0.00000e+00    0.00000e+00    0.00000e+00    5.12635e+00    2.27842e+00    5.69595e-01    5.69589e-01    5.69613e-01    5.69589e-01    1.42718e-01    1.42054e-01    1.42718e-01    1.42054e-01    2.88969e+00    9.75454e-01    7.22423e-01    5.35400e-01    7.22423e-01    2.43864e-01    1.33850e-01    1.33850e-01    2.43864e-01
    3.10000e+01    0.00000e+00    0.00000e+00    0.00000e+00    5.12649e+00    2.27849e+00    5.69614e-01    5.69600e-01    5.69632e-01    5.69600e-01    1.42658e-01    1.42119e-01    1.42658e-01    1.42119e-01    2.88969e+00    9.75454e-01    7.22423e-01    5.35400e-01    7.22423e-01    2.43864e-01    1.33850e-01    1.33850e-01    2.43864e-01
    3.20000e+01    0.00000e+00    0.00000e+00    0.00000e+00    5.12661e+00    2.27855e+00    5.69632e-01    5.69609e-01    5.69644e-01    5.69609e-01    1.42603e-01    1.42180e-01    1.42603e-01    1.42180e-01    2.88969e+00    9.75454e-01    7.22423e-01    5.35400e-01    7.22423e-01    2.43864e-01    1.33850e-01    1.33850e-01    2.43864e-01
    3.30000e+01    0.00000e+00    0.00000e+00    0.00000e+00    5.12672e+00    2.27861e+00    5.69645e-01    5.69614e-01    5.69660e-01    5.69614e-01    1.42554e-01    1.42235e-01    1.42554e-01    1.42235e-01    2.88969e+00    9.75454e-01    7.22423e-01    5.35400e-01    7.22423e-01    2.43864e-01    1.33850e-01    1.33850e-01    2.43864e-01
    3.40000e+01    0.00000e+00    0.00000e+00    0.00000e+00    5.12680e+00    2.27865e+00    5.69659e-01    5.69620e-01    5.69666e-01    5.69620e-01    1.42511e-01    1.42283e-01    1.42511e-01    1.42283e-01    2.88969e+00    9.75454e-01    7.22423e-01    5.35400e-01    7.22423e-01    2.43864e-01    1.33850e-01    1.33850e-01    2.43864e-01
    3.50000e+01    0.00000e+00    0.00000e+00    0.00000e+00    5.12686e+00    2.27868e+00    5.69667e-01    5.69621e-01    5.69673e-01    5.69621e-01    1.42475e-01    1.42321e-01    1.42475e-01    1.42321e-01    2.88969e+00    9.75454e-01    7.22423e-01    5.35400e-01    7.22423e-01    2.43864e-01    1.33850e-01    1.33850e-01    2.43864e-01
    3.60000e+01    0.00000e+00    0.00000e+00    0.00000e+00    5.12697e+00    2.27873e+00    5.69674e-01    5.69624e-01    5.69698e-01    5.69624e-01    1.42456e-01    1.42352e-01    1.42456e-01    1.42352e-01    2.88969e+00    9.75454e-01    7.22423e-01    5.35400e-01    7.22423e-01    2.43864e-01    1.33850e-01    1.33850e-01    2.43864e-01
    3.70000e+01    0.00000e+00    0.00000e+00    0.00000e+00    5.12694e+00    2.27873e+00    5.69690e-01    5.69629e-01    5.69656e-01    5.69629e-01    1.42432e-01    1.42376e-01    1.42432e-01    1.42376e-01    2.88969e+00    9.75454e-01    7.22423e-01    5.35400e-01    7.22423e-01    2.43864e-01    1.33850e-01    1.33850e-01    2.43864e-01
    3.80000e+01    0.00000e+00    0.00000e+00    0.00000e+00    5.12706e+00    2.27878e+00    5.69677e-01    5.69619e-01    5.69750e-01    5.69619e-01    1.42422e-01    1.42388e-01    1.42422e-01    1.42388e-01    2.88969e+00    9.75454e-01    7.22423e-01    5.35400e-01    7.22423e-01    2.43864e-01    1.33850e-01    1.33850e-01    2.43864e-01
    3.90000e+01    0.00000e+00    0.00000e+00    0.00000e+00    5.12741e+00    2.27893e+00    5.69708e-01    5.69710e-01    5.69708e-01    5.69710e-01    1.42433e-01    1.42393e-01    1.42433e-01    1.42393e-01    2.88969e+00    9.75454e-01    7.22423e-01    5.35400e-01    7.22423e-01    2.43864e-01    1.33850e-01    1.33850e-01    2.43864e-01
    0.00000e+00    1.00000e+00    0.00000e+00    0.00000e+00    5.13041e+00    2.28017e+00    5.70057e-01    5.70039e-01    5.70057e-01    5.70044e-01    1.42514e-01    1.42508e-01    1.42514e-01    1.42508e-01    2.88969e+00    9.75454e-01    7.22423e-01    5.35400e-01    7.22423e-01    2.43864e-01    1.33850e-01    1.33850e-01    2.43864e-01
    1.00000e+00    1.00000e+00   -2.93339e-05   -1.21322e-06    5.13038e+00    2.28015e+00    5.70028e-01    5.70018e-01    5.70133e-01    5.70015e-01    1.42498e-01    1.42512e-01    1.42526e-01    1.42495e-01    2.88969e+00    9.75454e-01    7.22423e-01    5.35400e-01    7.22423e-01    2.43864e-01    1.33850e-01    1.33850e-01    2.43864e-01
    2.00000e+00    1.00000e+00   -8.49414e-05    2.04374e-05    5.13030e+00    2.28011e+00    5.69949e-01    5.70017e-01    5.70235e-01    5.69938e-01    1.42516e-01    1.42521e-01    1.42578e-01    1.42433e-01    2.88969e+00    9.75454e-01    7.22423e-01    5.35400e-01    7.22423e-01    2.43864e-01    1.33850e-01    1.33850e-01    2.43864e-01
    3.00000e+00    1.00000e+00   -1.70660e-04    2.56960e-05    5.13020e+00    2.28007e+00    5.69826e-01    5.69987e-01    5.70409e-01    5.69882e-01    1.42498e-01    1.42533e-01    1.42631e-01    1.42373e-01    2.88969e+00    9.75454e-01    7.22423e-01    5.35400e-01    7.22423e-01    2.43864e-01    1.33850e-01    1.33850e-01    2.43864e-01
    4.00000e+00    1.00000e+00   -2.93422e-04    4.60274e-05    5.13008e+00    2.28000e+00    5.69636e-01    5.69984e-01    5.70635e-01    5.69808e-01    1.42486e-01    1.42551e-01    1.42710e-01    1.42268e-01    2.88969e+00    9.75454e-01    7.22423e-01    5.35400e-01    7.22423e-01    2.43864e-01    1.33850e-01    1.33850e-01    2.43864e-01
    5.00000e+00    1.00000e+00   -4.46804e-04    5.13053e-05    5.12994e+00    2.27993e+00    5.69381e-01    5.69955e-01    5.70906e-01    5.69757e-01    1.42457e-01    1.42580e-01    1.42808e-01    1.42163e-01    2.88969e+00    9.75454e-01    7.22423e-01    5.35400e-01    7.22423e-01    2.43864e-01    1.33850e-01    1.33850e-01    2.43864e-01
    6.00000e+00    1.00000e+00   -6.20221e-04    5.34416e-05    5.12977e+00    2.27985e+00    5.69078e-01    5.69937e-01    5.71193e-01    5.69728e-01    1.42420e-01    1.42607e-01    1.42920e-01    1.42041e-01    2.88969e+00    9.75454e-01    7.22423e-01    5.35400e-01    7.22423e-01    2.43864e-01    1.33850e-01    1.33850e-01    2.43864e-01
    7.00000e+00    1.00000e+00   -8.05041e-04    5.03609e-05    5.12958e+00    2.27975e+00    5.68747e-01    5.69901e-01    5.71497e-01    5.69701e-01    1.42380e-01    1.42640e-01    1.43040e-01    1.41922e-01    2.88969e+00    9.75454e-01    7.22423e-01    5.35400e-01    7.22423e-01    2.43864e-01    1.33850e-01    1.33850e-01    2.43864e-01
    8.00000e+00    1.00000e+00   -9.99096e-04    4.83590e-05    5.12936e+00    2.27964e+00    5.68397e-01    5.69873e-01    5.71811e-01    5.69677e-01    1.42336e-01    1.42669e-01    1.43165e-01    1.41788e-01    2.88969e+00    9.75454e-01    7.22423e-01    5.35400e-01    7.22423e-01    2.43864e-01    1.33850e-01    1.33850e-01    2.43864e-01
    9.00000e+00    1.00000e+00   -1.19910e-03    4.29823e-05    5.12910e+00    2.27952e+00    5.68027e-01    5.69835e-01    5.72127e-01    5.69657e-01    1.42287e-01    1.42702e-01    1.43291e-01    1.41656e-01    2.88969e+00    9.75454e-01    7.22423e-01    5.35400e-01    7.22423e-01    2.43864e-01    1.33850e-01    1.33850e-01    2.43864e-01
    1.00000e+01    1.00000e+00   -1.40128e-03    3.81055e-05    5.12882e+00    2.27938e+00    5.67649e-01    5.69799e-01    5.72441e-01    5.69636e-01    1.42238e-01    1.42734e-01    1.43419e-01    1.41520e-01    2.88969e+00    9.75454e-01    7.22423e-01    5.35400e-01    7.22423e-01    2.43864e-01    1.33850e-01    1.33850e-01    2.43864e-01
    1.10000e+01    1.00000e+00   -1.60251e-03    3.17814e-05    5.12850e+00    2.27923e+00    5.67265e-01    5.69757e-01    5.72748e-01    5.69615e-01    1.42186e-01    1.42765e-01    1.43543e-01    1.41387e-01    2.88969e+00    9.75454e-01    7.22423e-01    5.35400e-01    7.22423e-01    2.43864e-01    1.33850e-01    1.33850e-01    2.43864e-01
    1.20000e+01    1.00000e+00   -1.80016e-03    2.55829e-05    5.12816e+00    2.27907e+00    5.66883e-01    5.69716e-01    5.73044e-01    5.69595e-01    1.42132e-01    1.42795e-01    1.43663e-01    1.41255e-01    2.88969e+00    9.75454e-01    7.22423e-01    5.35400e-01    7.22423e-01    2.43864e-01    1.33850e-01    1.33850e-01    2.43864e-01
    1.30000e+01    1.00000e+00   -1.99084e-03    1.84564e-05    5.12779e+00    2.27891e+00    5.66508e-01    5.69673e-01    5.73322e-01    5.69576e-01    1.42079e-01    1.42825e-01    1.43777e-01    1.41130e-01    2.88969e+00    9.75454e-01    7.22423e-01    5.35400e-01    7.22423e-01    2.43864e-01    1.33850e-01    1.33850e-01    2.43864e-01
    1.40000e+01    1.00000e+00   -2.17073e-03    1.14288e-05    5.12742e+00    2.27874e+00    5.66147e-01    5.69632e-01    5.73578e-01    5.69559e-01    1.42026e-01    1.42852e-01    1.43883e-01    1.41010e-01    2.88969e+00    9.75454e-01    7.22423e-01    5.35400e-01    7.22423e-01    2.43864e-01    1.33850e-01    1.33850e-01    2.43864e-01
    1.50000e+01    1.00000e+00   -2.33586e-03    3.06904e-06    5.12706e+00    2.27857e+00    5.65807e-01    5.69592e-01    5.73806e-01    5.69548e-01    1.41975e-01    1.42877e-01    1.43978e-01    1.40902e-01    2.88969e+00    9.75454e-01    7.22423e-01    5.35400e-01    7.22423e-01    2.43864e-01    1.33850e-01    1.33850e-01    2.43864e-01
    1.60000e+01    1.00000e+00   -2.48203e-03   -5.94942e-06    5.12670e+00    2.27841e+00    5.65499e-01    5.69555e-01    5.73999e-01    5.69544e-01    1.41928e-01    1.42899e-01    1.44060e-01    1.40807e-01    2.88969e+00    9.75454e-01    7.22423e-01    5.35400e-01    7.22423e-01    2.43864e-01    1.33850e-01    1.33850e-01    2.43864e-01
    1.70000e+01    1.00000e+00   -2.60461e-03   -1.56366e-05    5.12637e+00    2.27827e+00    5.65229e-01    5.69522e-01    5.74150e-01    5.69546e-01    1.41885e-01    1.42916e-01    1.44128e-01    1.40729e-01    2.88969e+00    9.75454e-01    7.22423e-01    5.35400e-01    7.22423e-01    2.43864e-01    1.33850e-01    1.33850e-01    2.43864e-01
    1.80000e+01    1.00000e+00   -2.69919e-03   -2.64959e-05    5.12608e+00    2.27814e+00    5.65008e-01    5.69495e-01    5.74254e-01    5.69560e-01    1.41848e-01    1.42929e-01    1.44178e-01    1.40669e-01    2.88969e+00    9.75454e-01    7.22423e-01    5.35400e-01    7.22423e-01    2.43864e-01    1.33850e-01    1.33850e-01    2.43864e-01
    1.90000e+01    1.00000e+00   -2.76172e-03   -3.87715e-05    5.12584e+00    2.27804e+00    5.64842e-01    5.69473e-01    5.74304e-01    5.69585e-01    1.41818e-01    1.42936e-01    1.44209e-01    1.40632e-01    2.88969e+00    9.75454e-01    7.22423e-01    5.35400e-01    7.22423e-01    2.43864e-01    1.33850e-01    1.33850e-01    2.43864e-01
    2.00000e+01    1.00000e+00   -2.78853e-03   -5.10820e-05    5.12565e+00    2.27796e+00    5.64742e-01    5.69459e-01    5.74296e-01    5.69618e-01    1.41797e-01    1.42937e-01    1.44218e-01    1.40620e-01    2.88969e+00    9.75454e-01    7.22423e-01    5.35400e-01    7.22423e-01    2.43864e-01    1.33850e-01    1.33850e-01    2.43864e-01
    2.10000e+01    1.00000e+00   -2.77696e-03   -6.38698e-05    5.12552e+00    2.27792e+00    5.64711e-01    5.69453e-01    5.74227e-01    5.69660e-01    1.41785e-01    1.42932e-01    1.44204e-01    1.40633e-01    2.88969e+00    9.75454e-01    7.22423e-01    5.35400e-01    7.22423e-01    2.43864e-01    1.33850e-01    1.33850e-01    2.43864e-01
    2.20000e+01    1.00000e+00   -2.72562e-03   -7.71100e-05    5.12545e+00    2.27790e+00    5.64754e-01    5.69452e-01    5.74095e-01    5.69712e-01    1.41783e-01    1.42919e-01    1.44166e-01    1.40672e-01    2.88969e+00    9.75454e-01    7.22423e-01    5.35400e-01    7.22423e-01    2.43864e-01    1.33850e-01    1.33850e-01    2.43864e-01
    2.30000e+01    1.00000e+00   -2.63436e-03   -8.91571e-05    5.12543e+00    2.27790e+00    5.64872e-01    5.69459e-01    5.73902e-01    5.69766e-01    1.41792e-01    1.42899e-01    1.44104e-01    1.40738e-01    2.88969e+00    9.75454e-01    7.22423e-01    5.35400e-01    7.22423e-01    2.43864e-01    1.33850e-01    1.33850e-01    2.43864e-01
    2.40000e+01    1.00000e+00   -2.50473e-03   -9.93047e-05    5.12547e+00    2.27793e+00    5.65064e-01    5.69472e-01    5.73651e-01    5.69819e-01    1.41812e-01    1.42873e-01    1.44019e-01    1.40829e-01    2.88969e+00    9.75454e-01    7.22423e-01    5.35400e-01    7.22423e-01    2.43864e-01    1.33850e-01    1.33850e-01    2.43864e-01
    2.50000e+01    1.00000e+00   -2.34011e-03   -1.07946e-04    5.12555e+00    2.27798e+00    5.65324e-01    5.69489e-01    5.73348e-01    5.69872e-01    1.41842e-01    1.42841e-01    1.43912e-01    1.40941e-01    2.88969e+00    9.75454e-01    7.22423e-01    5.35400e-01    7.22423e-01    2.43864e-01    1.33850e-01    1.33850e-01    2.43864e-01
    2.60000e+01    1.00000e+00   -2.14537e-03   -1.13410e-04    5.12567e+00    2.27805e+00    5.65646e-01    5.69511e-01    5.73003e-01    5.69918e-01    1.41880e-01    1.42803e-01    1.43787e-01    1.41071e-01    2.88969e+00    9.75454e-01    7.22423e-01    5.35400e-01    7.22423e-01    2.43864e-01    1.33850e-01    1.33850e-01    2.43864e-01
    2.70000e+01    1.00000e+00   -1.92688e-03   -1.14888e-04    5.12581e+00    2.27812e+00    5.66017e-01    5.69535e-01    5.72627e-01    5.69952e-01    1.41927e-01    1.42762e-01    1.43647e-01    1.41215e-01    2.88969e+00    9.75454e-01    7.22423e-01    5.35400e-01    7.22423e-01    2.43864e-01    1.33850e-01    1.33850e-01    2.43864e-01
    2.80000e+01    1.00000e+00   -1.69224e-03   -1.12765e-04    5.12596e+00    2.27821e+00    5.66425e-01    5.69560e-01    5.72232e-01    5.69973e-01    1.41979e-01    1.42719e-01    1.43496e-01    1.41368e-01    2.88969e+00    9.75454e-01    7.22423e-01    5.35400e-01    7.22423e-01    2.43864e-01    1.33850e-01    1.33850e-01    2.43864e-01
    2.90000e+01    1.00000e+00   -1.44975e-03   -1.06750e-04    5.12611e+00    2.27829e+00    5.66856e-01    5.69586e-01    5.71832e-01    5.69980e-01    1.42035e-01    1.42674e-01    1.43339e-01    1.41523e-01    2.88969e+00    9.75454e-01    7.22423e-01    5.35400e-01    7.22423e-01    2.43864e-01    1.33850e-01    1.33850e-01    2.43864e-01
    3.00000e+01    1.00000e+00   -1.20810e-03   -9.61903e-05    5.12626e+00    2.27837e+00    5.67293e-01    5.69611e-01    5.71441e-01    5.69969e-01    1.42093e-01    1.42630e-01    1.43183e-01    1.41675e-01    2.88969e+00    9.75454e-01    7.22423e-01    5.35400e-01    7.22423e-01    2.43864e-01    1.33850e-01    1.33850e-01    2.43864e-01
    3.10000e+01    1.00000e+00   -9.75596e-04   -8.21132e-05    5.12640e+00    2.27844e+00    5.67721e-01    5.69635e-01    5.71072e-01    5.69944e-01    1.42150e-01    1.42589e-01    1.43031e-01    1.41820e-01    2.88969e+00    9.75454e-01    7.22423e-01    5.35400e-01    7.22423e-01    2.43864e-01    1.33850e-01    1.33850e-01    2.43864e-01
    3.20000e+01    1.00000e+00   -7.59841e-04   -6.51980e-05    5.12653e+00    2.27851e+00    5.68125e-01    5.69655e-01    5.70737e-01    5.69905e-01    1.42205e-01    1.42551e-01    1.42889e-01    1.41952e-01    2.88969e+00    9.75454e-01    7.22423e-01    5.35400e-01    7.22423e-01    2.43864e-01    1.33850e-01    1.33850e-01    2.43864e-01
    3.30000e+01    1.00000e+00   -5.67351e-04   -4.55201e-05    5.12663e+00    2.27856e+00    5.68494e-01    5.69675e-01    5.70445e-01    5.69855e-01    1.42256e-01    1.42518e-01    1.42761e-01    1.42067e-01    2.88969e+00    9.75454e-01    7.22423e-01    5.35400e-01    7.22423e-01    2.43864e-01    1.33850e-01    1.33850e-01    2.43864e-01
    3.40000e+01    1.00000e+00   -4.03222e-04   -2.50996e-05    5.12673e+00    2.27861e+00    5.68816e-01    5.69690e-01    5.70205e-01    5.69796e-01    1.42301e-01    1.42492e-01    1.42651e-01    1.42164e-01    2.88969e+00    9.75454e-01    7.22423e-01    5.35400e-01    7.22423e-01    2.43864e-01    1.33850e-01    1.33850e-01    2.43864e-01
    3.50000e+01    1.00000e+00   -2.69914e-04   -4.32992e-06    5.12680e+00    2.27865e+00    5.69084e-01    5.69702e-01    5.70015e-01    5.69735e-01    1.42339e-01    1.42473e-01    1.42561e-01    1.42240e-01    2.88969e+00    9.75454e-01    7.22423e-01    5.35400e-01    7.22423e-01    2.43864e-01    1.33850e-01    1.33850e-01    2.43864e-01
    3.60000e+01    1.00000e+00   -1.64849e-04    1.48231e-05    5.12687e+00    2.27868e+00    5.69298e-01    5.69722e-01    5.69868e-01    5.69680e-01    1.42371e-01    1.42453e-01    1.42492e-01    1.42299e-01    2.88969e+00    9.75454e-01    7.22423e-01    5.35400e-01    7.22423e-01    2.43864e-01    1.33850e-01    1.33850e-01    2.43864e-01
    3.70000e+01    1.00000e+00   -9.44640e-05    3.32183e-05    5.12693e+00    2.27872e+00    5.69465e-01    5.69718e-01    5.69801e-01    5.69619e-01    1.42393e-01    1.42449e-01    1.42432e-01    1.42339e-01    2.88969e+00    9.75454e-01    7.22423e-01    5.35400e-01    7.22423e-01    2.43864e-01    1.33850e-01    1.33850e-01    2.43864e-01
    3.80000e+01    1.00000e+00   -5.23093e-05    5.57839e-05    5.12701e+00    2.27875e+00    5.69567e-01    5.69748e-01    5.69737e-01    5.69569e-01    1.42411e-01    1.42461e-01    1.42407e-01    1.42358e-01    2.88969e+00    9.75454e-01    7.22423e-01    5.35400e-01    7.22423e-01    2.43864e-01    1.33850e-01    1.33850e-01    2.43864e-01
    3.90000e+01    1.00000e+00    0.00000e+00    0.00000e+00    5.12705e+00    2.27877e+00    5.69630e-01    5.69748e-01    5.69630e-01    5.69671e-01    1.42425e-01    1.42374e-01    1.42425e-01    1.42374e-01    2.88969e+00    9.75454e-01    7.22423e-01    5.35400e-01    7.22423e-01    2.43864e-01    1.33850e-01    1.33850e-01    2.43864e-01
    0.00000e+00    2.00000e+00    0.00000e+00    0.00000e+00    5.13041e+00    2.28016e+00    5.70059e-01    5.70048e-01    5.70059e-01    5.70041e-01    1.42491e-01    1.42529e-01    1.42491e-01    1.42529e-01    2.88969e+00    9.75454e-01    7.22423e-01    5.35400e-01    7.22423e-01    2.43864e-01    1.33850e-01    1.33850e-01    2.43864e-01
    1.00000e+00    2.00000e+00   -6.85197e-05    6.57038e-05    5.13037e+00    2.28014e+00    5.70026e-01    5.70045e-01    5.70275e-01    5.69813e-01    1.42508e-01    1.42578e-01    1.42506e-01    1.42474e-01    2.88969e+00    9.75454e-01    7.22423e-01    5.35400e-01    7.22423e-01    2.43864e-01    1.33850e-01    1.33850e-01    2.43864e-01
    2.00000e+00    2.00000e+00   -2.18391e-04    1.26791e-04    5.13030e+00    2.28011e+00    5.69826e-01    5.70095e-01    5.70571e-01    5.69654e-01    1.42493e-01    1.42633e-01    1.42575e-01    1.42341e-01    2.88969e+00    9.75454e-01    7.22423e-01    5.35400e-01    7.22423e-01    2.43864e-01    1.33850e-01    1.33850e-01    2.43864e-01
    3.00000e+00    2.00000e+00   -4.19707e-04    1.72834e-04    5.13019e+00    2.28006e+00    5.69506e-01    5.70113e-01    5.70953e-01    5.69516e-01    1.42446e-01    1.42723e-01    1.42655e-01    1.42224e-01    2.88969e+00    9.75454e-01    7.22423e-01    5.35400e-01    7.22423e-01    2.43864e-01    1.33850e-01    1.33850e-01    2.43864e-01
    4.00000e+00    2.00000e+00   -6.69395e-04    2.25988e-04    5.13009e+00    2.28000e+00    5.69117e-01    5.70150e-01    5.71412e-01    5.69373e-01    1.42393e-01    1.42814e-01    1.42772e-01    1.42054e-01    2.88969e+00    9.75454e-01    7.22423e-01    5.35400e-01    7.22423e-01    2.43864e-01    1.33850e-01    1.33850e-01    2.43864e-01
    5.00000e+00    2.00000e+00   -9.58980e-04    2.58376e-04    5.12995e+00    2.27993e+00    5.68632e-01    5.70159e-01    5.71923e-01    5.69271e-01    1.42317e-01    1.42919e-01    1.42913e-01    1.41886e-01    2.88969e+00    9.75454e-01    7.22423e-01    5.35400e-01    7.22423e-01    2.43864e-01    1.33850e-01    1.33850e-01    2.43864e-01