TITLE="LBM output"
VARIABLES = "X", "Y", "U","V","density","f0","f1","f2","f3","f4","f5","f6","f7","f8","feq0","feq1","feq2","feq3","feq4","feq5","feq6","feq7","feq8",
ZONE T = "fluid", I=40, J=40, F=POINT
SOLUTIONTIME=1554
    0.00000e+00    0.00000e+00    0.00000e+00    0.00000e+00    5.17049e+00    2.29806e+00    5.74497e-01    5.74497e-01    5.74497e-01    5.74497e-01    1.43591e-01    1.43629e-01    1.43591e-01    1.43629e-01    2.93643e+00    9.91230e-01    7.34106e-01    5.44059e-01    7.34106e-01    2.47807e-01    1.36015e-01    1.36015e-01    2.47807e-01
    1.00000e+00    0.00000e+00    0.00000e+00    0.00000e+00    5.17025e+00    2.29795e+00    5.74530e-01    5.74430e-01    5.74477e-01    5.74430e-01    1.43595e-01    1.43623e-01    1.43595e-01    1.43623e-01    2.93643e+00    9.91230e-01    7.34106e-01    5.44059e-01    7.34106e-01    2.47807e-01    1.36015e-01    1.36015e-01    2.47807e-01
    2.00000e+00    0.00000e+00    0.00000e+00    0.00000e+00    5.17029e+00    2.29796e+00    5.74451e-01    5.74455e-01    5.74509e-01    5.74455e-01    1.43608e-01    1.43620e-01    1.43608e-01    1.43620e-01    2.93643e+00    9.91230e-01    7.34106e-01    5.44059e-01    7.34106e-01    2.47807e-01    1.36015e-01    1.36015e-01    2.47807e-01
    3.00000e+00    0.00000e+00    0.00000e+00    0.00000e+00    5.17043e+00    2.29802e+00    5.74523e-01    5.74441e-01    5.74504e-01    5.74441e-01    1.43632e-01    1.43618e-01    1.43632e-01    1.43618e-01    2.93643e+00    9.91230e-01    7.34106e-01    5.44059e-01    7.34106e-01    2.47807e-01    1.36015e-01    1.36015e-01    2.47807e-01
    4.00000e+00    0.00000e+00    0.00000e+00    0.00000e+00    5.17055e+00    2.29807e+00    5.74492e-01    5.74471e-01    5.74536e-01    5.74471e-01    1.43675e-01    1.43579e-01    1.43675e-01    1.43579e-01    2.93643e+00    9.91230e-01    7.34106e-01    5.44059e-01    7.34106e-01    2.47807e-01    1.36015e-01    1.36015e-01    2.47807e-01
    5.00000e+00    0.00000e+00    0.00000e+00    0.00000e+00    5.17081e+00    2.29818e+00    5.74537e-01    5.74497e-01    5.74559e-01    5.74497e-01    1.43718e-01    1.43551e-01    1.43718e-01    1.43551e-01    2.93643e+00    9.91230e-01    7.34106e-01    5.44059e-01    7.34106e-01    2.47807e-01    1.36015e-01    1.36015e-01    2.47807e-01
    6.00000e+00    0.00000e+00    0.00000e+00    0.00000e+00    5.17110e+00    2.29830e+00    5.74550e-01    5.74535e-01    5.74598e-01    5.74535e-01    1.43775e-01    1.43513e-01    1.43775e-01    1.43513e-01    2.93643e+00    9.91230e-01    7.34106e-01    5.44059e-01    7.34106e-01    2.47807e-01    1.36015e-01    1.36015e-01    2.47807e-01
    7.00000e+00    0.00000e+00    0.00000e+00    0.00000e+00    5.17148e+00    2.29847e+00    5.74594e-01    5.74578e-01    5.74641e-01    5.74578e-01    1.43836e-01    1.43476e-01    1.43836e-01    1.43476e-01    2.93643e+00    9.91230e-01    7.34106e-01    5.44059e-01    7.34106e-01    2.47807e-01    1.36015e-01    1.36015e-01    2.47807e-01
    8.00000e+00    0.00000e+00    0.00000e+00    0.00000e+00    5.17192e+00    2.29866e+00    5.74632e-01    5.74631e-01    5.74695e-01    5.74631e-01    1.43903e-01    1.43437e-01    1.43903e-01    1.43437e-01    2.93643e+00    9.91230e-01    7.34106e-01    5.44059e-01    7.34106e-01    2.47807e-01    1.36015e-01    1.36015e-01    2.47807e-01
    9.00000e+00    0.00000e+00    0.00000e+00    0.00000e+00    5.17245e+00    2.29888e+00    5.74687e-01    5.74693e-01    5.74754e-01    5.74693e-01    1.43971e-01    1.43399e-01    1.43971e-01    1.43399e-01    2.93643e+00    9.91230e-01    7.34106e-01    5.44059e-01    7.34106e-01    2.47807e-01    1.36015e-01    1.36015e-01    2.47807e-01
    1.00000e+01    0.00000e+00    0.00000e+00    0.00000e+00    5.17304e+00    2.29914e+00    5.74745e-01    5.74764e-01    5.74824e-01    5.74764e-01    1.44044e-01    1.43361e-01    1.44044e-01    1.43361e-01    2.93643e+00    9.91230e-01    7.34106e-01    5.44059e-01    7.34106e-01    2.47807e-01    1.36015e-01    1.36015e-01    2.47807e-01
    1.10000e+01    0.00000e+00    0.00000e+00    0.00000e+00    5.17371e+00    2.29942e+00    5.74813e-01    5.74841e-01    5.74899e-01    5.74841e-01    1.44118e-01    1.43327e-01    1.44118e-01    1.43327e-01    2.93643e+00    9.91230e-01    7.34106e-01    5.44059e-01    7.34106e-01    2.47807e-01    1.36015e-01    1.36015e-01    2.47807e-01
    1.20000e+01    0.00000e+00    0.00000e+00    0.00000e+00    5.17444e+00    2.29974e+00    5.74888e-01    5.74927e-01    5.74984e-01    5.74927e-01    1.44193e-01    1.43295e-01    1.44193e-01    1.43295e-01    2.93643e+00    9.91230e-01    7.34106e-01    5.44059e-01    7.34106e-01    2.47807e-01    1.36015e-01    1.36015e-01    2.47807e-01
    1.30000e+01    0.00000e+00    0.00000e+00    0.00000e+00    5.17525e+00    2.30009e+00    5.74972e-01    5.75021e-01    5.75075e-01    5.75021e-01    1.44266e-01    1.43268e-01    1.44266e-01    1.43268e-01    2.93643e+00    9.91230e-01    7.34106e-01    5.44059e-01    7.34106e-01    2.47807e-01    1.36015e-01    1.36015e-01    2.47807e-01
    1.40000e+01    0.00000e+00    0.00000e+00    0.00000e+00    5.17612e+00    2.30047e+00    5.75062e-01    5.75122e-01    5.75174e-01    5.75122e-01    1.44338e-01    1.43245e-01    1.44338e-01    1.43245e-01    2.93643e+00    9.91230e-01    7.34106e-01    5.44059e-01    7.34106e-01    2.47807e-01    1.36015e-01    1.36015e-01    2.47807e-01
    1.50000e+01    0.00000e+00    0.00000e+00    0.00000e+00    5.17704e+00    2.30088e+00    5.75160e-01    5.75229e-01    5.75278e-01    5.75229e-01    1.44405e-01    1.43229e-01    1.44405e-01    1.43229e-01    2.93643e+00    9.91230e-01    7.34106e-01    5.44059e-01    7.34106e-01    2.47807e-01    1.36015e-01    1.36015e-01    2.47807e-01
    1.60000e+01    0.00000e+00    0.00000e+00    0.00000e+00    5.17802e+00    2.30131e+00    5.75264e-01    5.75343e-01    5.75389e-01    5.75343e-01    1.44467e-01    1.43222e-01    1.44467e-01    1.43222e-01    2.93643e+00    9.91230e-01    7.34106e-01    5.44059e-01    7.34106e-01    2.47807e-01    1.36015e-01    1.36015e-01    2.47807e-01
    1.70000e+01    0.00000e+00    0.00000e+00    0.00000e+00    5.17905e+00    2.30176e+00    5.75374e-01    5.75462e-01    5.75505e-01    5.75462e-01    1.44521e-01    1.43224e-01    1.44521e-01    1.43224e-01    2.93643e+00    9.91230e-01    7.34106e-01    5.44059e-01    7.34106e-01    2.47807e-01    1.36015e-01    1.36015e-01    2.47807e-01
    1.80000e+01    0.00000e+00    0.00000e+00    0.00000e+00    5.18011e+00    2.30223e+00    5.75490e-01    5.75585e-01    5.75623e-01    5.75585e-01    1.44566e-01    1.43236e-01    1.44566e-01    1.43236e-01    2.93643e+00    9.91230e-01    7.34106e-01    5.44059e-01    7.34106e-01    2.47807e-01    1.36015e-01    1.36015e-01    2.47807e-01
    1.90000e+01    0.00000e+00    0.00000e+00    0.00000e+00    5.18120e+00    2.30271e+00    5.75608e-01    5.75712e-01    5.75745e-01    5.75712e-01    1.44599e-01    1.43260e-01    1.44599e-01    1.43260e-01    2.93643e+00    9.91230e-01    7.34106e-01    5.44059e-01    7.34106e-01    2.47807e-01    1.36015e-01    1.36015e-01    2.47807e-01
    2.00000e+01    0.00000e+00    0.00000e+00    0.00000e+00    5.18231e+00    2.30320e+00    5.75730e-01    5.75840e-01    5.75868e-01    5.75840e-01    1.44620e-01    1.43298e-01    1.44620e-01    1.43298e-01    2.93643e+00    9.91230e-01    7.34106e-01    5.44059e-01    7.34106e-01    2.47807e-01    1.36015e-01    1.36015e-01    2.47807e-01
    2.10000e+01    0.00000e+00    0.00000e+00    0.00000e+00    5.18341e+00    2.30368e+00    5.75853e-01    5.75968e-01    5.75989e-01    5.75968e-01    1.44628e-01    1.43347e-01    1.44628e-01    1.43347e-01    2.93643e+00    9.91230e-01    7.34106e-01    5.44059e-01    7.34106e-01    2.47807e-01    1.36015e-01    1.36015e-01    2.47807e-01
    2.20000e+01    0.00000e+00    0.00000e+00    0.00000e+00    5.18450e+00    2.30417e+00    5.75975e-01    5.76094e-01    5.76109e-01    5.76094e-01    1.44622e-01    1.43410e-01    1.44622e-01    1.43410e-01    2.93643e+00    9.91230e-01    7.34106e-01    5.44059e-01    7.34106e-01    2.47807e-01    1.36015e-01    1.36015e-01    2.47807e-01
    2.30000e+01    0.00000e+00    0.00000e+00    0.00000e+00    5.18557e+00    2.30464e+00    5.76095e-01    5.76217e-01    5.76225e-01    5.76217e-01    1.44603e-01    1.43485e-01    1.44603e-01    1.43485e-01    2.93643e+00    9.91230e-01    7.34106e-01    5.44059e-01    7.34106e-01    2.47807e-01    1.36015e-01    1.36015e-01    2.47807e-01
    2.40000e+01    0.00000e+00    0.00000e+00    0.00000e+00    5.18659e+00    2.30510e+00    5.76212e-01    5.76335e-01    5.76336e-01    5.76335e-01    1.44573e-01    1.43569e-01    1.44573e-01    1.43569e-01    2.93643e+00    9.91230e-01    7.34106e-01    5.44059e-01    7.34106e-01    2.47807e-01    1.36015e-01    1.36015e-01    2.47807e-01
    2.50000e+01    0.00000e+00    0.00000e+00    0.00000e+00    5.18757e+00    2.30553e+00    5.76323e-01    5.76446e-01    5.76441e-01    5.76446e-01    1.44533e-01    1.43660e-01    1.44533e-01    1.43660e-01    2.93643e+00    9.91230e-01    7.34106e-01    5.44059e-01    7.34106e-01    2.47807e-01    1.36015e-01    1.36015e-01    2.47807e-01
    2.60000e+01    0.00000e+00    0.00000e+00    0.00000e+00    5.18847e+00    2.30593e+00    5.76428e-01    5.76549e-01    5.76536e-01    5.76549e-01    1.44485e-01    1.43756e-01    1.44485e-01    1.43756e-01    2.93643e+00    9.91230e-01    7.34106e-01    5.44059e-01    7.34106e-01    2.47807e-01    1.36015e-01    1.36015e-01    2.47807e-01
    2.70000e+01    0.00000e+00    0.00000e+00    0.00000e+00    5.18931e+00    2.30630e+00    5.76525e-01    5.76642e-01    5.76626e-01    5.76642e-01    1.44434e-01    1.43853e-01    1.44434e-01    1.43853e-01    2.93643e+00    9.91230e-01    7.34106e-01    5.44059e-01    7.34106e-01    2.47807e-01    1.36015e-01    1.36015e-01    2.47807e-01
    2.80000e+01    0.00000e+00    0.00000e+00    0.00000e+00    5.19007e+00    2.30664e+00    5.76615e-01    5.76727e-01    5.76703e-01    5.76727e-01    1.44383e-01    1.43946e-01    1.44383e-01    1.43946e-01    2.93643e+00    9.91230e-01    7.34106e-01    5.44059e-01    7.34106e-01    2.47807e-01    1.36015e-01    1.36015e-01    2.47807e-01
    2.90000e+01    0.00000e+00    0.00000e+00    0.00000e+00    5.19075e+00    2.30694e+00    5.76695e-01    5.76800e-01    5.76778e-01    5.76800e-01    1.44334e-01    1.44034e-01    1.44334e-01    1.44034e-01    2.93643e+00    9.91230e-01    7.34106e-01    5.44059e-01    7.34106e-01    2.47807e-01    1.36015e-01    1.36015e-01    2.47807e-01
    3.00000e+01    0.00000e+00    0.00000e+00    0.00000e+00    5.19135e+00    2.30721e+00    5.76768e-01    5.76865e-01    5.76834e-01    5.76865e-01    1.44292e-01    1.44113e-01    1.44292e-01    1.44113e-01    2.93643e+00    9.91230e-01    7.34106e-01    5.44059e-01    7.34106e-01    2.47807e-01    1.36015e-01    1.36015e-01    2.47807e-01
    3.10000e+01    0.00000e+00    0.00000e+00    0.00000e+00    5.19188e+00    2.30744e+00    5.76829e-01    5.76920e-01    5.76895e-01    5.76920e-01    1.44257e-01    1.44179e-01    1.44257e-01    1.44179e-01    2.93643e+00    9.91230e-01    7.34106e-01    5.44059e-01    7.34106e-01    2.47807e-01    1.36015e-01    1.36015e-01    2.47807e-01
    3.20000e+01    0.00000e+00    0.00000e+00    0.00000e+00    5.19232e+00    2.30764e+00    5.76886e-01    5.76968e-01    5.76930e-01    5.76968e-01    1.44235e-01    1.44230e-01    1.44235e-01    1.44230e-01    2.93643e+00    9.91230e-01    7.34106e-01    5.44059e-01    7.34106e-01    2.47807e-01    1.36015e-01    1.36015e-01    2.47807e-01
    3.30000e+01    0.00000e+00    0.00000e+00    0.00000e+00    5.19271e+00    2.30781e+00    5.76929e-01    5.77002e-01    5.76984e-01    5.77002e-01    1.44222e-01    1.44269e-01    1.44222e-01    1.44269e-01    2.93643e+00    9.91230e-01    7.34106e-01    5.44059e-01    7.34106e-01    2.47807e-01    1.36015e-01    1.36015e-01    2.47807e-01
    3.40000e+01    0.00000e+00    0.00000e+00    0.00000e+00    5.19302e+00    2.30795e+00    5.76972e-01    5.77038e-01    5.76992e-01    5.77038e-01    1.44221e-01    1.44292e-01    1.44221e-01    1.44292e-01    2.93643e+00    9.91230e-01    7.34106e-01    5.44059e-01    7.34106e-01    2.47807e-01    1.36015e-01    1.36015e-01    2.47807e-01
    3.50000e+01    0.00000e+00    0.00000e+00    0.00000e+00    5.19331e+00    2.30808e+00    5.76999e-01    5.77061e-01    5.77055e-01    5.77061e-01    1.44230e-01    1.44298e-01    1.44230e-01    1.44298e-01    2.93643e+00    9.91230e-01    7.34106e-01    5.44059e-01    7.34106e-01    2.47807e-01    1.36015e-01    1.36015e-01    2.47807e-01
    3.60000e+01    0.00000e+00    0.00000e+00    0.00000e+00    5.19349e+00    2.30816e+00    5.77037e-01    5.77104e-01    5.77021e-01    5.77104e-01    1.44232e-01    1.44299e-01    1.44232e-01    1.44299e-01    2.93643e+00    9.91230e-01    7.34106e-01    5.44059e-01    7.34106e-01    2.47807e-01    1.36015e-01    1.36015e-01    2.47807e-01
    3.70000e+01    0.00000e+00    0.00000e+00    0.00000e+00    5.19368e+00    2.30825e+00    5.77040e-01    5.77094e-01    5.77109e-01    5.77094e-01    1.44253e-01    1.44297e-01    1.44253e-01    1.44297e-01    2.93643e+00    9.91230e-01    7.34106e-01    5.44059e-01    7.34106e-01    2.47807e-01    1.36015e-01    1.36015e-01    2.47807e-01
    3.80000e+01    0.00000e+00    0.00000e+00    0.00000e+00    5.19380e+00    2.30830e+00    5.77079e-01    5.77139e-01    5.77035e-01    5.77139e-01    1.44271e-01    1.44286e-01    1.44271e-01    1.44286e-01    2.93643e+00    9.91230e-01    7.34106e-01    5.44059e-01    7.34106e-01    2.47807e-01    1.36015e-01    1.36015e-01    2.47807e-01
    3.90000e+01    0.00000e+00    0.00000e+00    0.00000e+00    5.19361e+00    2.30820e+00    5.77069e-01    5.77066e-01    5.77069e-01    5.77066e-01    1.44263e-01    1.44302e-01    1.44263e-01    1.44302e-01    2.93643e+00    9.91230e-01    7.34106e-01    5.44059e-01    7.34106e-01    2.47807e-01    1.36015e-01    1.36015e-01    2.47807e-01
    0.00000e+00    1.00000e+00    0.00000e+00    0.00000e+00    5.17026e+00    2.29795e+00    5.74423e-01    5.74531e-01    5.74423e-01    5.74479e-01    1.43604e-01    1.43621e-01    1.43604e-01    1.43621e-01    2.93643e+00    9.91230e-01    7.34106e-01    5.44059e-01    7.34106e-01    2.47807e-01    1.36015e-01    1.36015e-01    2.47807e-01
    1.00000e+00    1.00000e+00    3.98998e-05    5.25055e-05    5.17030e+00    2.29797e+00    5.74543e-01    5.74536e-01    5.74419e-01    5.74362e-01    1.43661e-01    1.43623e-01    1.43571e-01    1.43616e-01    2.93643e+00    9.91230e-01    7.34106e-01    5.44059e-01    7.34106e-01    2.47807e-01    1.36015e-01    1.36015e-01    2.47807e-01
    2.00000e+00    1.00000e+00    1.21712e-05    6.84116e-05    5.17036e+00    2.29800e+00    5.74586e-01    5.74521e-01    5.74540e-01    5.74282e-01    1.43645e-01    1.43631e-01    1.43580e-01    1.43582e-01    2.93643e+00    9.91230e-01    7.34106e-01    5.44059e-01    7.34106e-01    2.47807e-01    1.36015e-01    1.36015e-01    2.47807e-01
    3.00000e+00    1.00000e+00   -6.65664e-05    9.57869e-05    5.17047e+00    2.29804e+00    5.74482e-01    5.74561e-01    5.74713e-01    5.74216e-01    1.43638e-01    1.43666e-01    1.43619e-01    1.43534e-01    2.93643e+00    9.91230e-01    7.34106e-01    5.44059e-01    7.34106e-01    2.47807e-01    1.36015e-01    1.36015e-01    2.47807e-01
    4.00000e+00    1.00000e+00   -1.77801e-04    1.05654e-04    5.17063e+00    2.29811e+00    5.74346e-01    5.74557e-01    5.74960e-01    5.74178e-01    1.43627e-01    1.43699e-01    1.43696e-01    1.43462e-01    2.93643e+00    9.91230e-01    7.34106e-01    5.44059e-01    7.34106e-01    2.47807e-01    1.36015e-01    1.36015e-01    2.47807e-01
    5.00000e+00    1.00000e+00   -3.18879e-04    1.13061e-04    5.17088e+00    2.29821e+00    5.74147e-01    5.74586e-01    5.75250e-01    5.74175e-01    1.43599e-01    1.43742e-01    1.43786e-01    1.43382e-01    2.93643e+00    9.91230e-01    7.34106e-01    5.44059e-01    7.34106e-01    2.47807e-01    1.36015e-01    1.36015e-01    2.47807e-01
    6.00000e+00    1.00000e+00   -4.81563e-04    1.19334e-04    5.17118e+00    2.29834e+00    5.73922e-01    5.74611e-01    5.75585e-01    5.74176e-01    1.43579e-01    1.43788e-01    1.43901e-01    1.43283e-01    2.93643e+00    9.91230e-01    7.34106e-01    5.44059e-01    7.34106e-01    2.47807e-01    1.36015e-01    1.36015e-01    2.47807e-01
    7.00000e+00    1.00000e+00   -6.61295e-04    1.20243e-04    5.17156e+00    2.29850e+00    5.73663e-01    5.74650e-01    5.75948e-01    5.74210e-01    1.43548e-01    1.43839e-01    1.44025e-01    1.43181e-01    2.93643e+00    9.91230e-01    7.34106e-01    5.44059e-01    7.34106e-01    2.47807e-01    1.36015e-01    1.36015e-01    2.47807e-01
    8.00000e+00    1.00000e+00   -8.50382e-04    1.18193e-04    5.17202e+00    2.29869e+00    5.73392e-01    5.74693e-01    5.76331e-01    5.74258e-01    1.43519e-01    1.43893e-01    1.44161e-01    1.43076e-01    2.93643e+00    9.91230e-01    7.34106e-01    5.44059e-01    7.34106e-01    2.47807e-01    1.36015e-01    1.36015e-01    2.47807e-01
    9.00000e+00    1.00000e+00   -1.04444e-03    1.13357e-04    5.17254e+00    2.29892e+00    5.73115e-01    5.74745e-01    5.76726e-01    5.74325e-01    1.43489e-01    1.43951e-01    1.44301e-01    1.42972e-01    2.93643e+00    9.91230e-01    7.34106e-01    5.44059e-01    7.34106e-01    2.47807e-01    1.36015e-01    1.36015e-01    2.47807e-01
    1.00000e+01    1.00000e+00   -1.23999e-03    1.07434e-04    5.17313e+00    2.29917e+00    5.72842e-01    5.74804e-01    5.77130e-01    5.74403e-01    1.43461e-01    1.44009e-01    1.44447e-01    1.42868e-01    2.93643e+00    9.91230e-01    7.34106e-01    5.44059e-01    7.34106e-01    2.47807e-01    1.36015e-01    1.36015e-01    2.47807e-01
    1.10000e+01    1.00000e+00   -1.43340e-03    9.92801e-05    5.17380e+00    2.29946e+00    5.72575e-01    5.74872e-01    5.77533e-01    5.74499e-01    1.43433e-01    1.44069e-01    1.44592e-01    1.42769e-01    2.93643e+00    9.91230e-01    7.34106e-01    5.44059e-01    7.34106e-01    2.47807e-01    1.36015e-01    1.36015e-01    2.47807e-01
    1.20000e+01    1.00000e+00   -1.62079e-03    8.92305e-05    5.17453e+00    2.29977e+00    5.72324e-01    5.74946e-01    5.77931e-01    5.74608e-01    1.43408e-01    1.44129e-01    1.44736e-01    1.42677e-01    2.93643e+00    9.91230e-01    7.34106e-01    5.44059e-01    7.34106e-01    2.47807e-01    1.36015e-01    1.36015e-01    2.47807e-01
    1.30000e+01    1.00000e+00   -1.79801e-03    7.70779e-05    5.17533e+00    2.30012e+00    5.72092e-01    5.75029e-01    5.78314e-01    5.74733e-01    1.43386e-01    1.44188e-01    1.44876e-01    1.42595e-01    2.93643e+00    9.91230e-01    7.34106e-01    5.44059e-01    7.34106e-01    2.47807e-01    1.36015e-01    1.36015e-01    2.47807e-01
    1.40000e+01    1.00000e+00   -1.96015e-03    6.31222e-05    5.17619e+00    2.30049e+00    5.71889e-01    5.75118e-01    5.78673e-01    5.74872e-01    1.43368e-01    1.44245e-01    1.45009e-01    1.42524e-01    2.93643e+00    9.91230e-01    7.34106e-01    5.44059e-01    7.34106e-01    2.47807e-01    1.36015e-01    1.36015e-01    2.47807e-01
    1.50000e+01    1.00000e+00   -2.10197e-03    4.61494e-05    5.17711e+00    2.30089e+00    5.71722e-01    5.75215e-01    5.78999e-01    5.75030e-01    1.43354e-01    1.44298e-01    1.45130e-01    1.42469e-01    2.93643e+00    9.91230e-01    7.34106e-01    5.44059e-01    7.34106e-01    2.47807e-01    1.36015e-01    1.36015e-01    2.47807e-01
    1.60000e+01    1.00000e+00   -2.21784e-03    2.67881e-05    5.17808e+00    2.30132e+00    5.71600e-01    5.75317e-01    5.79280e-01    5.75202e-01    1.43347e-01    1.44347e-01    1.45237e-01    1.42433e-01    2.93643e+00    9.91230e-01    7.34106e-01    5.44059e-01    7.34106e-01    2.47807e-01    1.36015e-01    1.36015e-01    2.47807e-01
    1.70000e+01    1.00000e+00   -2.30200e-03    5.37972e-06    5.17909e+00    2.30176e+00    5.71532e-01    5.75425e-01    5.79505e-01    5.75387e-01    1.43347e-01    1.44389e-01    1.45327e-01    1.42420e-01    2.93643e+00    9.91230e-01    7.34106e-01    5.44059e-01    7.34106e-01    2.47807e-01    1.36015e-01    1.36015e-01    2.47807e-01
    1.80000e+01    1.00000e+00   -2.34915e-03   -1.83529e-05    5.18014e+00    2.30222e+00    5.71527e-01    5.75537e-01    5.79665e-01    5.75586e-01    1.43355e-01    1.44423e-01    1.45393e-01    1.42431e-01    2.93643e+00    9.91230e-01    7.34106e-01    5.44059e-01    7.34106e-01    2.47807e-01    1.36015e-01    1.36015e-01    2.47807e-01
    1.90000e+01    1.00000e+00   -2.35480e-03   -4.41575e-05    5.18121e+00    2.30269e+00    5.71592e-01    5.75652e-01    5.79753e-01    5.75796e-01    1.43372e-01    1.44449e-01    1.45434e-01    1.42470e-01    2.93643e+00    9.91230e-01    7.34106e-01    5.44059e-01    7.34106e-01    2.47807e-01    1.36015e-01    1.36015e-01    2.47807e-01
    2.00000e+01    1.00000e+00   -2.31553e-03   -7.01156e-05    5.18230e+00    2.30318e+00    5.71735e-01    5.75769e-01    5.79761e-01    5.76009e-01    1.43400e-01    1.44464e-01    1.45448e-01    1.42539e-01    2.93643e+00    9.91230e-01    7.34106e-01    5.44059e-01    7.34106e-01    2.47807e-01    1.36015e-01    1.36015e-01    2.47807e-01
    2.10000e+01    1.00000e+00   -2.22987e-03   -9.60069e-05    5.18339e+00    2.30366e+00    5.71957e-01    5.75887e-01    5.79688e-01    5.76223e-01    1.43438e-01    1.44469e-01    1.45431e-01    1.42636e-01    2.93643e+00    9.91230e-01    7.34106e-01    5.44059e-01    7.34106e-01    2.47807e-01    1.36015e-01    1.36015e-01    2.47807e-01
    2.20000e+01    1.00000e+00   -2.09853e-03   -1.21224e-04    5.18446e+00    2.30414e+00    5.72258e-01    5.76003e-01    5.79536e-01    5.76434e-01    1.43485e-01    1.44463e-01    1.45385e-01    1.42761e-01    2.93643e+00    9.91230e-01    7.34106e-01    5.44059e-01    7.34106e-01    2.47807e-01    1.36015e-01    1.36015e-01    2.47807e-01
    2.30000e+01    1.00000e+00   -1.92447e-03   -1.43330e-04    5.18551e+00    2.30460e+00    5.72635e-01    5.76117e-01    5.79311e-01    5.76631e-01    1.43544e-01    1.44449e-01    1.45310e-01    1.42911e-01    2.93643e+00    9.91230e-01    7.34106e-01    5.44059e-01    7.34106e-01    2.47807e-01    1.36015e-01    1.36015e-01    2.47807e-01
    2.40000e+01    1.00000e+00   -1.71334e-03   -1.61233e-04    5.18652e+00    2.30506e+00    5.73078e-01    5.76227e-01    5.79024e-01    5.76809e-01    1.43611e-01    1.44426e-01    1.45208e-01    1.43082e-01    2.93643e+00    9.91230e-01    7.34106e-01    5.44059e-01    7.34106e-01    2.47807e-01    1.36015e-01    1.36015e-01    2.47807e-01
    2.50000e+01    1.00000e+00   -1.47333e-03   -1.74755e-04    5.18748e+00    2.30549e+00    5.73575e-01    5.76332e-01    5.78691e-01    5.76966e-01    1.43685e-01    1.44395e-01    1.45085e-01    1.43268e-01    2.93643e+00    9.91230e-01    7.34106e-01    5.44059e-01    7.34106e-01    2.47807e-01    1.36015e-01    1.36015e-01    2.47807e-01
    2.60000e+01    1.00000e+00   -1.21459e-03   -1.82149e-04    5.18838e+00    2.30589e+00    5.74110e-01    5.76431e-01    5.78328e-01    5.77094e-01    1.43764e-01    1.44361e-01    1.44947e-01    1.43461e-01    2.93643e+00    9.91230e-01    7.34106e-01    5.44059e-01    7.34106e-01    2.47807e-01    1.36015e-01    1.36015e-01    2.47807e-01
    2.70000e+01    1.00000e+00   -9.48843e-04   -1.82360e-04    5.18922e+00    2.30626e+00    5.74661e-01    5.76524e-01    5.77959e-01    5.77188e-01    1.43846e-01    1.44326e-01    1.44800e-01    1.43654e-01    2.93643e+00    9.91230e-01    7.34106e-01    5.44059e-01    7.34106e-01    2.47807e-01    1.36015e-01    1.36015e-01    2.47807e-01
    2.80000e+01    1.00000e+00   -6.88566e-04   -1.76653e-04    5.18998e+00    2.30660e+00    5.75207e-01    5.76607e-01    5.77603e-01    5.77251e-01    1.43927e-01    1.44292e-01    1.44652e-01    1.43839e-01    2.93643e+00    9.91230e-01    7.34106e-01    5.44059e-01    7.34106e-01    2.47807e-01    1.36015e-01    1.36015e-01    2.47807e-01
    2.90000e+01    1.00000e+00   -4.45954e-04   -1.64435e-04    5.19066e+00    2.30691e+00    5.75726e-01    5.76684e-01    5.77281e-01    5.77283e-01    1.44004e-01    1.44260e-01    1.44511e-01    1.44008e-01    2.93643e+00    9.91230e-01    7.34106e-01    5.44059e-01    7.34106e-01    2.47807e-01    1.36015e-01    1.36015e-01    2.47807e-01
    3.00000e+01    1.00000e+00   -2.32381e-04   -1.46832e-04    5.19127e+00    2.30718e+00    5.76197e-01    5.76751e-01    5.77011e-01    5.77286e-01    1.44075e-01    1.44235e-01    1.44386e-01    1.44153e-01    2.93643e+00    9.91230e-01    7.34106e-01    5.44059e-01    7.34106e-01    2.47807e-01    1.36015e-01    1.36015e-01    2.47807e-01
    3.10000e+01    1.00000e+00   -5.70488e-05   -1.24697e-04    5.19180e+00    2.30741e+00    5.76601e-01    5.76813e-01    5.76807e-01    5.77265e-01    1.44137e-01    1.44218e-01    1.44280e-01    1.44271e-01    2.93643e+00    9.91230e-01    7.34106e-01    5.44059e-01    7.34106e-01    2.47807e-01    1.36015e-01    1.36015e-01    2.47807e-01
    3.20000e+01    1.00000e+00    7.42628e-05   -1.01574e-04    5.19227e+00    2.30762e+00    5.76925e-01    5.76863e-01    5.76674e-01    5.77228e-01    1.44190e-01    1.44208e-01    1.44204e-01    1.44356e-01    2.93643e+00    9.91230e-01    7.34106e-01    5.44059e-01    7.34106e-01    2.47807e-01    1.36015e-01    1.36015e-01    2.47807e-01
    3.30000e+01    1.00000e+00    1.58267e-04   -7.55687e-05    5.19266e+00    2.30779e+00    5.77162e-01    5.76913e-01    5.76620e-01    5.77182e-01    1.44228e-01    1.44206e-01    1.44150e-01    1.44407e-01    2.93643e+00    9.91230e-01    7.34106e-01    5.44059e-01    7.34106e-01    2.47807e-01    1.36015e-01    1.36015e-01    2.47807e-01
    3.40000e+01    1.00000e+00    1.93133e-04   -5.14886e-05    5.19299e+00    2.30794e+00    5.77307e-01    5.76944e-01    5.76643e-01    5.77125e-01    1.44257e-01    1.44216e-01    1.44131e-01    1.44429e-01    2.93643e+00    9.91230e-01    7.34106e-01    5.44059e-01    7.34106e-01    2.47807e-01    1.36015e-01    1.36015e-01    2.47807e-01
    3.50000e+01    1.00000e+00    1.86757e-04   -3.24562e-05    5.19327e+00    2.30806e+00    5.77360e-01    5.76986e-01    5.76718e-01    5.77093e-01    1.44271e-01    1.44225e-01    1.44138e-01    1.44419e-01    2.93643e+00    9.91230e-01    7.34106e-01    5.44059e-01    7.34106e-01    2.47807e-01    1.36015e-01    1.36015e-01    2.47807e-01
    3.60000e+01    1.00000e+00    1.50229e-04   -2.99847e-05    5.19349e+00    2.30816e+00    5.77348e-01    5.76984e-01    5.76829e-01    5.77084e-01    1.44278e-01    1.44237e-01    1.44175e-01    1.44395e-01    2.93643e+00    9.91230e-01    7.34106e-01    5.44059e-01    7.34106e-01    2.47807e-01    1.36015e-01    1.36015e-01    2.47807e-01
    3.70000e+01    1.00000e+00    1.05851e-04   -1.70047e-05    5.19365e+00    2.30823e+00    5.77280e-01    5.77033e-01    5.76910e-01    5.77083e-01    1.44284e-01    1.44253e-01    1.44214e-01    1.44362e-01    2.93643e+00    9.91230e-01    7.34106e-01    5.44059e-01    7.34106e-01    2.47807e-01    1.36015e-01    1.36015e-01    2.47807e-01
    3.80000e+01    1.00000e+00    5.87434e-05   -3.53906e-05    5.19376e+00    2.30828e+00    5.77223e-01    5.77019e-01    5.77024e-01    5.77128e-01    1.44276e-01    1.44229e-01    1.44261e-01    1.44319e-01    2.93643e+00    9.91230e-01    7.34106e-01    5.44059e-01    7.34106e-01    2.47807e-01    1.36015e-01    1.36015e-01    2.47807e-01
    3.90000e+01    1.00000e+00    0.00000e+00    0.00000e+00    5.19382e+00    2.30830e+00    5.77137e-01    5.77037e-01    5.77137e-01    5.77087e-01    1.44267e-01    1.44291e-01    1.44267e-01    1.44291e-01    2.93643e+00    9.91230e-01    7.34106e-01    5.44059e-01    7.34106e-01    2.47807e-01    1.36015e-01    1.36015e-01    2.47807e-01
    0.00000e+00    2.00000e+00    0.00000e+00    0.00000e+00    5.17031e+00    2.29797e+00    5.74459e-01    5.74452e-01    5.74459e-01    5.74512e-01    1.43596e-01    1.43633e-01    1.43596e-01    1.43633e-01    2.93643e+00    9.91230e-01    7.34106e-01    5.44059e-01    7.34106e-01    2.47807e-01    1.36015e-01    1.36015e-01    2.47807e-01
    1.00000e+00    2.00000e+00    1.51478e-05    9.59339e-05    5.17036e+00    2.29800e+00    5.74524e-01    5.74627e-01    5.74485e-01    5.74290e-01    1.43638e-01    1.43661e-01    1.43539e-01    1.43602e-01    2.93643e+00    9.91230e-01    7.34106e-01    5.44059e-01    7.34106e-01    2.47807e-01    1.36015e-01    1.36015e-01    2.47807e-01
    2.00000e+00    2.00000e+00   -3.98439e-05    1.89168e-04    5.17042e+00    2.29802e+00    5.74537e-01    5.74698e-01    5.74671e-01    5.74039e-01    1.43669e-01    1.43719e-01    1.43544e-01    1.43523e-01    2.93643e+00    9.91230e-01    7.34106e-01    5.44059e-01    7.34106e-01    2.47807e-01    1.36015e-01    1.36015e-01    2.47807e-01
    3.00000e+00    2.00000e+00   -1.77840e-04    2.65651e-04    5.17053e+00    2.29807e+00    5.74374e-01    5.74769e-01    5.74993e-01    5.73852e-01    1.43676e-01    1.43792e-01    1.43598e-01    1.43414e-01    2.93643e+00    9.91230e-01    7.34106e-01    5.44059e-01    7.34106e-01    2.47807e-01    1.36015e-01    1.36015e-01    2.47807e-01
    4.00000e+00    2.00000e+00   -3.81554e-04    3.24075e-04    5.17072e+00    2.29815e+00    5.74106e-01    5.74834e-01    5.75419e-01    5.73716e-01    1.43649e-01    1.43882e-01    1.43700e-01    1.43273e-01    2.93643e+00    9.91230e-01    7.34106e-01    5.44059e-01    7.34106e-01    2.47807e-01    1.36015e-01    1.36015e-01    2.47807e-01
    5.00000e+00    2.00000e+00   -6.39156e-04    3.60645e-04    5.17097e+00    2.29825e+00    5.73733e-01    5.74880e-01    5.75936e-01    5.73634e-01    1.43589e-01    1.43989e-01    1.43831e-01    1.43128e-01    2.93643e+00    9.91230e-01    7.34106e-01    5.44059e-01    7.34106e-01    2.47807e-01    1.36015e-01    1.36015e-01    2.47807e-01