TITLE="LBM output"
VARIABLES = "X", "Y", "U","V","density","f0","f1","f2","f3","f4","f5","f6","f7","f8","feq0","feq1","feq2","feq3","feq4","feq5","feq6","feq7","feq8",
ZONE T = "fluid", I=40, J=40, F=POINT
SOLUTIONTIME=901
    0.00000e+00    0.00000e+00    0.00000e+00    0.00000e+00    5.09865e+00    2.26558e+00    5.66537e-01    5.66533e-01    5.66537e-01    5.66533e-01    1.41863e-01    1.41599e-01    1.41863e-01    1.41599e-01    2.89087e+00    9.75851e-01    7.22717e-01    5.35617e-01    7.22717e-01    2.43963e-01    1.33904e-01    1.33904e-01    2.43963e-01
    1.00000e+00    0.00000e+00    0.00000e+00    0.00000e+00    5.10060e+00    2.26645e+00    5.66286e-01    5.67043e-01    5.66710e-01    5.67043e-01    1.41876e-01    1.41657e-01    1.41876e-01    1.41657e-01    2.89087e+00    9.75851e-01    7.22717e-01    5.35617e-01    7.22717e-01    2.43963e-01    1.33904e-01    1.33904e-01    2.43963e-01
    2.00000e+00    0.00000e+00    0.00000e+00    0.00000e+00    5.10091e+00    2.26660e+00    5.66869e-01    5.66913e-01    5.66570e-01    5.66913e-01    1.41942e-01    1.41577e-01    1.41942e-01    1.41577e-01    2.89087e+00    9.75851e-01    7.22717e-01    5.35617e-01    7.22717e-01    2.43963e-01    1.33904e-01    1.33904e-01    2.43963e-01
    3.00000e+00    0.00000e+00    0.00000e+00    0.00000e+00    5.10061e+00    2.26649e+00    5.66485e-01    5.67011e-01    5.66684e-01    5.67011e-01    1.42018e-01    1.41450e-01    1.42018e-01    1.41450e-01    2.89087e+00    9.75851e-01    7.22717e-01    5.35617e-01    7.22717e-01    2.43963e-01    1.33904e-01    1.33904e-01    2.43963e-01
    4.00000e+00    0.00000e+00    0.00000e+00    0.00000e+00    5.10107e+00    2.26671e+00    5.66728e-01    5.66961e-01    5.66661e-01    5.66961e-01    1.42091e-01    1.41434e-01    1.42091e-01    1.41434e-01    2.89087e+00    9.75851e-01    7.22717e-01    5.35617e-01    7.22717e-01    2.43963e-01    1.33904e-01    1.33904e-01    2.43963e-01
    5.00000e+00    0.00000e+00    0.00000e+00    0.00000e+00    5.10104e+00    2.26672e+00    5.66644e-01    5.66967e-01    5.66698e-01    5.66967e-01    1.42186e-01    1.41337e-01    1.42186e-01    1.41337e-01    2.89087e+00    9.75851e-01    7.22717e-01    5.35617e-01    7.22717e-01    2.43963e-01    1.33904e-01    1.33904e-01    2.43963e-01
    6.00000e+00    0.00000e+00    0.00000e+00    0.00000e+00    5.10128e+00    2.26685e+00    5.66711e-01    5.66973e-01    5.66723e-01    5.66973e-01    1.42268e-01    1.41256e-01    1.42268e-01    1.41256e-01    2.89087e+00    9.75851e-01    7.22717e-01    5.35617e-01    7.22717e-01    2.43963e-01    1.33904e-01    1.33904e-01    2.43963e-01
    7.00000e+00    0.00000e+00    0.00000e+00    0.00000e+00    5.10147e+00    2.26696e+00    5.66720e-01    5.66988e-01    5.66756e-01    5.66988e-01    1.42350e-01    1.41177e-01    1.42350e-01    1.41177e-01    2.89087e+00    9.75851e-01    7.22717e-01    5.35617e-01    7.22717e-01    2.43963e-01    1.33904e-01    1.33904e-01    2.43963e-01
    8.00000e+00    0.00000e+00    0.00000e+00    0.00000e+00    5.10172e+00    2.26710e+00    5.66762e-01    5.67001e-01    5.66792e-01    5.67001e-01    1.42430e-01    1.41100e-01    1.42430e-01    1.41100e-01    2.89087e+00    9.75851e-01    7.22717e-01    5.35617e-01    7.22717e-01    2.43963e-01    1.33904e-01    1.33904e-01    2.43963e-01
    9.00000e+00    0.00000e+00    0.00000e+00    0.00000e+00    5.10199e+00    2.26726e+00    5.66792e-01    5.67019e-01    5.66834e-01    5.67019e-01    1.42504e-01    1.41033e-01    1.42504e-01    1.41033e-01    2.89087e+00    9.75851e-01    7.22717e-01    5.35617e-01    7.22717e-01    2.43963e-01    1.33904e-01    1.33904e-01    2.43963e-01
    1.00000e+01    0.00000e+00    0.00000e+00    0.00000e+00    5.10232e+00    2.26743e+00    5.66836e-01    5.67042e-01    5.66880e-01    5.67042e-01    1.42575e-01    1.40971e-01    1.42575e-01    1.40971e-01    2.89087e+00    9.75851e-01    7.22717e-01    5.35617e-01    7.22717e-01    2.43963e-01    1.33904e-01    1.33904e-01    2.43963e-01
    1.10000e+01    0.00000e+00    0.00000e+00    0.00000e+00    5.10269e+00    2.26762e+00    5.66880e-01    5.67069e-01    5.66931e-01    5.67069e-01    1.42640e-01    1.40917e-01    1.42640e-01    1.40917e-01    2.89087e+00    9.75851e-01    7.22717e-01    5.35617e-01    7.22717e-01    2.43963e-01    1.33904e-01    1.33904e-01    2.43963e-01
    1.20000e+01    0.00000e+00    0.00000e+00    0.00000e+00    5.10309e+00    2.26783e+00    5.66931e-01    5.67102e-01    5.66986e-01    5.67102e-01    1.42701e-01    1.40870e-01    1.42701e-01    1.40870e-01    2.89087e+00    9.75851e-01    7.22717e-01    5.35617e-01    7.22717e-01    2.43963e-01    1.33904e-01    1.33904e-01    2.43963e-01
    1.30000e+01    0.00000e+00    0.00000e+00    0.00000e+00    5.10355e+00    2.26806e+00    5.66985e-01    5.67140e-01    5.67046e-01    5.67140e-01    1.42757e-01    1.40831e-01    1.42757e-01    1.40831e-01    2.89087e+00    9.75851e-01    7.22717e-01    5.35617e-01    7.22717e-01    2.43963e-01    1.33904e-01    1.33904e-01    2.43963e-01
    1.40000e+01    0.00000e+00    0.00000e+00    0.00000e+00    5.10404e+00    2.26830e+00    5.67044e-01    5.67183e-01    5.67109e-01    5.67183e-01    1.42808e-01    1.40800e-01    1.42808e-01    1.40800e-01    2.89087e+00    9.75851e-01    7.22717e-01    5.35617e-01    7.22717e-01    2.43963e-01    1.33904e-01    1.33904e-01    2.43963e-01
    1.50000e+01    0.00000e+00    0.00000e+00    0.00000e+00    5.10457e+00    2.26856e+00    5.67107e-01    5.67231e-01    5.67176e-01    5.67231e-01    1.42853e-01    1.40776e-01    1.42853e-01    1.40776e-01    2.89087e+00    9.75851e-01    7.22717e-01    5.35617e-01    7.22717e-01    2.43963e-01    1.33904e-01    1.33904e-01    2.43963e-01
    1.60000e+01    0.00000e+00    0.00000e+00    0.00000e+00    5.10513e+00    2.26884e+00    5.67173e-01    5.67283e-01    5.67247e-01    5.67283e-01    1.42891e-01    1.40761e-01    1.42891e-01    1.40761e-01    2.89087e+00    9.75851e-01    7.22717e-01    5.35617e-01    7.22717e-01    2.43963e-01    1.33904e-01    1.33904e-01    2.43963e-01
    1.70000e+01    0.00000e+00    0.00000e+00    0.00000e+00    5.10572e+00    2.26912e+00    5.67243e-01    5.67339e-01    5.67320e-01    5.67339e-01    1.42922e-01    1.40755e-01    1.42922e-01    1.40755e-01    2.89087e+00    9.75851e-01    7.22717e-01    5.35617e-01    7.22717e-01    2.43963e-01    1.33904e-01    1.33904e-01    2.43963e-01
    1.80000e+01    0.00000e+00    0.00000e+00    0.00000e+00    5.10633e+00    2.26942e+00    5.67315e-01    5.67397e-01    5.67394e-01    5.67397e-01    1.42947e-01    1.40757e-01    1.42947e-01    1.40757e-01    2.89087e+00    9.75851e-01    7.22717e-01    5.35617e-01    7.22717e-01    2.43963e-01    1.33904e-01    1.33904e-01    2.43963e-01
    1.90000e+01    0.00000e+00    0.00000e+00    0.00000e+00    5.10695e+00    2.26972e+00    5.67389e-01    5.67457e-01    5.67469e-01    5.67457e-01    1.42961e-01    1.40768e-01    1.42961e-01    1.40768e-01    2.89087e+00    9.75851e-01    7.22717e-01    5.35617e-01    7.22717e-01    2.43963e-01    1.33904e-01    1.33904e-01    2.43963e-01
    2.00000e+01    0.00000e+00    0.00000e+00    0.00000e+00    5.10757e+00    2.27002e+00    5.67464e-01    5.67519e-01    5.67544e-01    5.67519e-01    1.42966e-01    1.40790e-01    1.42966e-01    1.40790e-01    2.89087e+00    9.75851e-01    7.22717e-01    5.35617e-01    7.22717e-01    2.43963e-01    1.33904e-01    1.33904e-01    2.43963e-01
    2.10000e+01    0.00000e+00    0.00000e+00    0.00000e+00    5.10820e+00    2.27031e+00    5.67539e-01    5.67580e-01    5.67618e-01    5.67580e-01    1.42963e-01    1.40820e-01    1.42963e-01    1.40820e-01    2.89087e+00    9.75851e-01    7.22717e-01    5.35617e-01    7.22717e-01    2.43963e-01    1.33904e-01    1.33904e-01    2.43963e-01
    2.20000e+01    0.00000e+00    0.00000e+00    0.00000e+00    5.10881e+00    2.27061e+00    5.67613e-01    5.67641e-01    5.67690e-01    5.67641e-01    1.42947e-01    1.40861e-01    1.42947e-01    1.40861e-01    2.89087e+00    9.75851e-01    7.22717e-01    5.35617e-01    7.22717e-01    2.43963e-01    1.33904e-01    1.33904e-01    2.43963e-01
    2.30000e+01    0.00000e+00    0.00000e+00    0.00000e+00    5.10940e+00    2.27089e+00    5.67685e-01    5.67700e-01    5.67759e-01    5.67700e-01    1.42921e-01    1.40912e-01    1.42921e-01    1.40912e-01    2.89087e+00    9.75851e-01    7.22717e-01    5.35617e-01    7.22717e-01    2.43963e-01    1.33904e-01    1.33904e-01    2.43963e-01
    2.40000e+01    0.00000e+00    0.00000e+00    0.00000e+00    5.10996e+00    2.27116e+00    5.67754e-01    5.67757e-01    5.67824e-01    5.67757e-01    1.42884e-01    1.40973e-01    1.42884e-01    1.40973e-01    2.89087e+00    9.75851e-01    7.22717e-01    5.35617e-01    7.22717e-01    2.43963e-01    1.33904e-01    1.33904e-01    2.43963e-01
    2.50000e+01    0.00000e+00    0.00000e+00    0.00000e+00    5.11049e+00    2.27141e+00    5.67820e-01    5.67810e-01    5.67884e-01    5.67810e-01    1.42837e-01    1.41042e-01    1.42837e-01    1.41042e-01    2.89087e+00    9.75851e-01    7.22717e-01    5.35617e-01    7.22717e-01    2.43963e-01    1.33904e-01    1.33904e-01    2.43963e-01
    2.60000e+01    0.00000e+00    0.00000e+00    0.00000e+00    5.11097e+00    2.27164e+00    5.67880e-01    5.67858e-01    5.67939e-01    5.67858e-01    1.42780e-01    1.41119e-01    1.42780e-01    1.41119e-01    2.89087e+00    9.75851e-01    7.22717e-01    5.35617e-01    7.22717e-01    2.43963e-01    1.33904e-01    1.33904e-01    2.43963e-01
    2.70000e+01    0.00000e+00    0.00000e+00    0.00000e+00    5.11140e+00    2.27185e+00    5.67935e-01    5.67901e-01    5.67987e-01    5.67901e-01    1.42715e-01    1.41202e-01    1.42715e-01    1.41202e-01    2.89087e+00    9.75851e-01    7.22717e-01    5.35617e-01    7.22717e-01    2.43963e-01    1.33904e-01    1.33904e-01    2.43963e-01
    2.80000e+01    0.00000e+00    0.00000e+00    0.00000e+00    5.11178e+00    2.27203e+00    5.67984e-01    5.67938e-01    5.68029e-01    5.67938e-01    1.42644e-01    1.41289e-01    1.42644e-01    1.41289e-01    2.89087e+00    9.75851e-01    7.22717e-01    5.35617e-01    7.22717e-01    2.43963e-01    1.33904e-01    1.33904e-01    2.43963e-01
    2.90000e+01    0.00000e+00    0.00000e+00    0.00000e+00    5.11210e+00    2.27218e+00    5.68026e-01    5.67969e-01    5.68061e-01    5.67969e-01    1.42568e-01    1.41379e-01    1.42568e-01    1.41379e-01    2.89087e+00    9.75851e-01    7.22717e-01    5.35617e-01    7.22717e-01    2.43963e-01    1.33904e-01    1.33904e-01    2.43963e-01
    3.00000e+01    0.00000e+00    0.00000e+00    0.00000e+00    5.11235e+00    2.27230e+00    5.68060e-01    5.67992e-01    5.68091e-01    5.67992e-01    1.42489e-01    1.41470e-01    1.42489e-01    1.41470e-01    2.89087e+00    9.75851e-01    7.22717e-01    5.35617e-01    7.22717e-01    2.43963e-01    1.33904e-01    1.33904e-01    2.43963e-01
    3.10000e+01    0.00000e+00    0.00000e+00    0.00000e+00    5.11255e+00    2.27240e+00    5.68088e-01    5.68010e-01    5.68106e-01    5.68010e-01    1.42412e-01    1.41558e-01    1.42412e-01    1.41558e-01    2.89087e+00    9.75851e-01    7.22717e-01    5.35617e-01    7.22717e-01    2.43963e-01    1.33904e-01    1.33904e-01    2.43963e-01
    3.20000e+01    0.00000e+00    0.00000e+00    0.00000e+00    5.11269e+00    2.27247e+00    5.68108e-01    5.68021e-01    5.68127e-01    5.68021e-01    1.42335e-01    1.41642e-01    1.42335e-01    1.41642e-01    2.89087e+00    9.75851e-01    7.22717e-01    5.35617e-01    7.22717e-01    2.43963e-01    1.33904e-01    1.33904e-01    2.43963e-01
    3.30000e+01    0.00000e+00    0.00000e+00    0.00000e+00    5.11278e+00    2.27251e+00    5.68124e-01    5.68029e-01    5.68125e-01    5.68029e-01    1.42265e-01    1.41719e-01    1.42265e-01    1.41719e-01    2.89087e+00    9.75851e-01    7.22717e-01    5.35617e-01    7.22717e-01    2.43963e-01    1.33904e-01    1.33904e-01    2.43963e-01
    3.40000e+01    0.00000e+00    0.00000e+00    0.00000e+00    5.11286e+00    2.27254e+00    5.68130e-01    5.68030e-01    5.68149e-01    5.68030e-01    1.42201e-01    1.41788e-01    1.42201e-01    1.41788e-01    2.89087e+00    9.75851e-01    7.22717e-01    5.35617e-01    7.22717e-01    2.43963e-01    1.33904e-01    1.33904e-01    2.43963e-01
    3.50000e+01    0.00000e+00    0.00000e+00    0.00000e+00    5.11284e+00    2.27254e+00    5.68141e-01    5.68031e-01    5.68114e-01    5.68031e-01    1.42141e-01    1.41851e-01    1.42141e-01    1.41851e-01    2.89087e+00    9.75851e-01    7.22717e-01    5.35617e-01    7.22717e-01    2.43963e-01    1.33904e-01    1.33904e-01    2.43963e-01
    3.60000e+01    0.00000e+00    0.00000e+00    0.00000e+00    5.11296e+00    2.27259e+00    5.68129e-01    5.68011e-01    5.68190e-01    5.68011e-01    1.42115e-01    1.41899e-01    1.42115e-01    1.41899e-01    2.89087e+00    9.75851e-01    7.22717e-01    5.35617e-01    7.22717e-01    2.43963e-01    1.33904e-01    1.33904e-01    2.43963e-01
    3.70000e+01    0.00000e+00    0.00000e+00    0.00000e+00    5.11284e+00    2.27254e+00    5.68162e-01    5.68040e-01    5.68062e-01    5.68040e-01    1.42063e-01    1.41938e-01    1.42063e-01    1.41938e-01    2.89087e+00    9.75851e-01    7.22717e-01    5.35617e-01    7.22717e-01    2.43963e-01    1.33904e-01    1.33904e-01    2.43963e-01
    3.80000e+01    0.00000e+00    0.00000e+00    0.00000e+00    5.11294e+00    2.27258e+00    5.68115e-01    5.67996e-01    5.68254e-01    5.67996e-01    1.42032e-01    1.41967e-01    1.42032e-01    1.41967e-01    2.89087e+00    9.75851e-01    7.22717e-01    5.35617e-01    7.22717e-01    2.43963e-01    1.33904e-01    1.33904e-01    2.43963e-01
    3.90000e+01    0.00000e+00    0.00000e+00    0.00000e+00    5.11359e+00    2.27286e+00    5.68169e-01    5.68172e-01    5.68169e-01    5.68172e-01    1.42054e-01    1.41968e-01    1.42054e-01    1.41968e-01    2.89087e+00    9.75851e-01    7.22717e-01    5.35617e-01    7.22717e-01    2.43963e-01    1.33904e-01    1.33904e-01    2.43963e-01
    0.00000e+00    1.00000e+00    0.00000e+00    0.00000e+00    5.10063e+00    2.26647e+00    5.67055e-01    5.66289e-01    5.67055e-01    5.66723e-01    1.41870e-01    1.41651e-01    1.41870e-01    1.41651e-01    2.89087e+00    9.75851e-01    7.22717e-01    5.35617e-01    7.22717e-01    2.43963e-01    1.33904e-01    1.33904e-01    2.43963e-01
    1.00000e+00    1.00000e+00   -3.71208e-04   -3.07196e-04    5.10058e+00    2.26645e+00    5.66275e-01    5.66279e-01    5.67478e-01    5.67245e-01    1.41394e-01    1.41731e-01    1.42039e-01    1.41687e-01    2.89087e+00    9.75851e-01    7.22717e-01    5.35617e-01    7.22717e-01    2.43963e-01    1.33904e-01    1.33904e-01    2.43963e-01
    2.00000e+00    1.00000e+00   -5.77011e-04   -2.33272e-04    5.10073e+00    2.26653e+00    5.65755e-01    5.66444e-01    5.67780e-01    5.67175e-01    1.41477e-01    1.41819e-01    1.42166e-01    1.41589e-01    2.89087e+00    9.75851e-01    7.22717e-01    5.35617e-01    7.22717e-01    2.43963e-01    1.33904e-01    1.33904e-01    2.43963e-01
    3.00000e+00    1.00000e+00   -7.93589e-04   -2.32518e-04    5.10090e+00    2.26662e+00    5.65566e-01    5.66320e-01    5.68298e-01    5.67093e-01    1.41441e-01    1.41858e-01    1.42305e-01    1.41407e-01    2.89087e+00    9.75851e-01    7.22717e-01    5.35617e-01    7.22717e-01    2.43963e-01    1.33904e-01    1.33904e-01    2.43963e-01
    4.00000e+00    1.00000e+00   -1.07588e-03   -1.87742e-04    5.10105e+00    2.26670e+00    5.65095e-01    5.66454e-01    5.68784e-01    5.67036e-01    1.41366e-01    1.41937e-01    1.42454e-01    1.41226e-01    2.89087e+00    9.75851e-01    7.22717e-01    5.35617e-01    7.22717e-01    2.43963e-01    1.33904e-01    1.33904e-01    2.43963e-01
    5.00000e+00    1.00000e+00   -1.35943e-03   -1.63159e-04    5.10116e+00    2.26677e+00    5.64643e-01    5.66455e-01    5.69309e-01    5.66971e-01    1.41332e-01    1.42017e-01    1.42624e-01    1.41041e-01    2.89087e+00    9.75851e-01    7.22717e-01    5.35617e-01    7.22717e-01    2.43963e-01    1.33904e-01    1.33904e-01    2.43963e-01
    6.00000e+00    1.00000e+00   -1.64688e-03   -1.50569e-04    5.10134e+00    2.26687e+00    5.64169e-01    5.66508e-01    5.69816e-01    5.66975e-01    1.41258e-01    1.42091e-01    1.42786e-01    1.40865e-01    2.89087e+00    9.75851e-01    7.22717e-01    5.35617e-01    7.22717e-01    2.43963e-01    1.33904e-01    1.33904e-01    2.43963e-01
    7.00000e+00    1.00000e+00   -1.92324e-03   -1.34139e-04    5.10154e+00    2.26699e+00    5.63716e-01    5.66547e-01    5.70313e-01    5.66957e-01    1.41207e-01    1.42168e-01    1.42951e-01    1.40698e-01    2.89087e+00    9.75851e-01    7.22717e-01    5.35617e-01    7.22717e-01    2.43963e-01    1.33904e-01    1.33904e-01    2.43963e-01
    8.00000e+00    1.00000e+00   -2.18956e-03   -1.18184e-04    5.10178e+00    2.26712e+00    5.63287e-01    5.66599e-01    5.70793e-01    5.66954e-01    1.41155e-01    1.42238e-01    1.43111e-01    1.40529e-01    2.89087e+00    9.75851e-01    7.22717e-01    5.35617e-01    7.22717e-01    2.43963e-01    1.33904e-01    1.33904e-01    2.43963e-01
    9.00000e+00    1.00000e+00   -2.44171e-03   -1.04513e-04    5.10206e+00    2.26726e+00    5.62879e-01    5.66653e-01    5.71249e-01    5.66963e-01    1.41107e-01    1.42307e-01    1.43263e-01    1.40374e-01    2.89087e+00    9.75851e-01    7.22717e-01    5.35617e-01    7.22717e-01    2.43963e-01    1.33904e-01    1.33904e-01    2.43963e-01
    1.00000e+01    1.00000e+00   -2.67603e-03   -9.13676e-05    5.10238e+00    2.26743e+00    5.62505e-01    5.66712e-01    5.71677e-01    5.66978e-01    1.41066e-01    1.42371e-01    1.43407e-01    1.40230e-01    2.89087e+00    9.75851e-01    7.22717e-01    5.35617e-01    7.22717e-01    2.43963e-01    1.33904e-01    1.33904e-01    2.43963e-01
    1.10000e+01    1.00000e+00   -2.89119e-03   -7.93003e-05    5.10274e+00    2.26762e+00    5.62167e-01    5.66776e-01    5.72075e-01    5.67001e-01    1.41030e-01    1.42431e-01    1.43542e-01    1.40098e-01    2.89087e+00    9.75851e-01    7.22717e-01    5.35617e-01    7.22717e-01    2.43963e-01    1.33904e-01    1.33904e-01    2.43963e-01
    1.20000e+01    1.00000e+00   -3.08622e-03   -6.84528e-05    5.10314e+00    2.26782e+00    5.61868e-01    5.66844e-01    5.72443e-01    5.67033e-01    1.41000e-01    1.42486e-01    1.43667e-01    1.39979e-01    2.89087e+00    9.75851e-01    7.22717e-01    5.35617e-01    7.22717e-01    2.43963e-01    1.33904e-01    1.33904e-01    2.43963e-01
    1.30000e+01    1.00000e+00   -3.25993e-03   -5.88388e-05    5.10359e+00    2.26804e+00    5.61608e-01    5.66916e-01    5.72778e-01    5.67073e-01    1.40976e-01    1.42538e-01    1.43781e-01    1.39876e-01    2.89087e+00    9.75851e-01    7.22717e-01    5.35617e-01    7.22717e-01    2.43963e-01    1.33904e-01    1.33904e-01    2.43963e-01
    1.40000e+01    1.00000e+00   -3.41102e-03   -5.03832e-05    5.10407e+00    2.26828e+00    5.61390e-01    5.66991e-01    5.73076e-01    5.67121e-01    1.40958e-01    1.42585e-01    1.43883e-01    1.39787e-01    2.89087e+00    9.75851e-01    7.22717e-01    5.35617e-01    7.22717e-01    2.43963e-01    1.33904e-01    1.33904e-01    2.43963e-01
    1.50000e+01    1.00000e+00   -3.53813e-03   -4.39455e-05    5.10459e+00    2.26853e+00    5.61214e-01    5.67070e-01    5.73336e-01    5.67181e-01    1.40946e-01    1.42627e-01    1.43972e-01    1.39714e-01    2.89087e+00    9.75851e-01    7.22717e-01    5.35617e-01    7.22717e-01    2.43963e-01    1.33904e-01    1.33904e-01    2.43963e-01
    1.60000e+01    1.00000e+00   -3.63965e-03   -3.91629e-05    5.10515e+00    2.26880e+00    5.61084e-01    5.67151e-01    5.73553e-01    5.67248e-01    1.40940e-01    1.42663e-01    1.44047e-01    1.39659e-01    2.89087e+00    9.75851e-01    7.22717e-01    5.35617e-01    7.22717e-01    2.43963e-01    1.33904e-01    1.33904e-01    2.43963e-01
    1.70000e+01    1.00000e+00   -3.71352e-03   -3.56692e-05    5.10573e+00    2.26908e+00    5.61001e-01    5.67235e-01    5.73724e-01    5.67322e-01    1.40941e-01    1.42694e-01    1.44107e-01    1.39623e-01    2.89087e+00    9.75851e-01    7.22717e-01    5.35617e-01    7.22717e-01    2.43963e-01    1.33904e-01    1.33904e-01    2.43963e-01
    1.80000e+01    1.00000e+00   -3.75765e-03   -3.42332e-05    5.10633e+00    2.26937e+00    5.60969e-01    5.67320e-01    5.73843e-01    5.67406e-01    1.40948e-01    1.42718e-01    1.44149e-01    1.39605e-01    2.89087e+00    9.75851e-01    7.22717e-01    5.35617e-01    7.22717e-01    2.43963e-01    1.33904e-01    1.33904e-01    2.43963e-01
    1.90000e+01    1.00000e+00   -3.76992e-03   -3.48759e-05    5.10694e+00    2.26966e+00    5.60990e-01    5.67405e-01    5.73906e-01    5.67498e-01    1.40962e-01    1.42734e-01    1.44173e-01    1.39608e-01    2.89087e+00    9.75851e-01    7.22717e-01    5.35617e-01    7.22717e-01    2.43963e-01    1.33904e-01    1.33904e-01    2.43963e-01
    2.00000e+01    1.00000e+00   -3.74824e-03   -3.64312e-05    5.10755e+00    2.26996e+00    5.61067e-01    5.67490e-01    5.73910e-01    5.67594e-01    1.40984e-01    1.42743e-01    1.44176e-01    1.39634e-01    2.89087e+00    9.75851e-01    7.22717e-01    5.35617e-01    7.22717e-01    2.43963e-01    1.33904e-01    1.33904e-01    2.43963e-01
    2.10000e+01    1.00000e+00   -3.69101e-03   -3.93575e-05    5.10817e+00    2.27025e+00    5.61203e-01    5.67574e-01    5.73850e-01    5.67693e-01    1.41014e-01    1.42743e-01    1.44158e-01    1.39681e-01    2.89087e+00    9.75851e-01    7.22717e-01    5.35617e-01    7.22717e-01    2.43963e-01    1.33904e-01    1.33904e-01    2.43963e-01
    2.20000e+01    1.00000e+00   -3.59732e-03   -4.38774e-05    5.10877e+00    2.27054e+00    5.61398e-01    5.67656e-01    5.73725e-01    5.67797e-01    1.41050e-01    1.42734e-01    1.44117e-01    1.39750e-01    2.89087e+00    9.75851e-01    7.22717e-01    5.35617e-01    7.22717e-01    2.43963e-01    1.33904e-01    1.33904e-01    2.43963e-01
    2.30000e+01    1.00000e+00   -3.46698e-03   -4.84985e-05    5.10935e+00    2.27082e+00    5.61654e-01    5.67735e-01    5.73535e-01    5.67899e-01    1.41095e-01    1.42716e-01    1.44053e-01    1.39842e-01    2.89087e+00    9.75851e-01    7.22717e-01    5.35617e-01    7.22717e-01    2.43963e-01    1.33904e-01    1.33904e-01    2.43963e-01
    2.40000e+01    1.00000e+00   -3.30093e-03   -5.27645e-05    5.10990e+00    2.27109e+00    5.61968e-01    5.67810e-01    5.73281e-01    5.67995e-01    1.41147e-01    1.42690e-01    1.43967e-01    1.39955e-01    2.89087e+00    9.75851e-01    7.22717e-01    5.35617e-01    7.22717e-01    2.43963e-01    1.33904e-01    1.33904e-01    2.43963e-01
    2.50000e+01    1.00000e+00   -3.10146e-03   -5.71473e-05    5.11042e+00    2.27134e+00    5.62338e-01    5.67880e-01    5.72969e-01    5.68086e-01    1.41206e-01    1.42655e-01    1.43858e-01    1.40088e-01    2.89087e+00    9.75851e-01    7.22717e-01    5.35617e-01    7.22717e-01    2.43963e-01    1.33904e-01    1.33904e-01    2.43963e-01
    2.60000e+01    1.00000e+00   -2.87203e-03   -6.02009e-05    5.11089e+00    2.27157e+00    5.62758e-01    5.67944e-01    5.72603e-01    5.68167e-01    1.41271e-01    1.42612e-01    1.43730e-01    1.40238e-01    2.89087e+00    9.75851e-01    7.22717e-01    5.35617e-01    7.22717e-01    2.43963e-01    1.33904e-01    1.33904e-01    2.43963e-01
    2.70000e+01    1.00000e+00   -2.61741e-03   -6.10443e-05    5.11131e+00    2.27177e+00    5.63220e-01    5.68002e-01    5.72194e-01    5.68234e-01    1.41342e-01    1.42563e-01    1.43584e-01    1.40401e-01    2.89087e+00    9.75851e-01    7.22717e-01    5.35617e-01    7.22717e-01    2.43963e-01    1.33904e-01    1.33904e-01    2.43963e-01
    2.80000e+01    1.00000e+00   -2.34364e-03   -5.98166e-05    5.11168e+00    2.27195e+00    5.63716e-01    5.68053e-01    5.71752e-01    5.68285e-01    1.41415e-01    1.42509e-01    1.43424e-01    1.40574e-01    2.89087e+00    9.75851e-01    7.22717e-01    5.35617e-01    7.22717e-01    2.43963e-01    1.33904e-01    1.33904e-01    2.43963e-01
    2.90000e+01    1.00000e+00   -2.05776e-03   -5.63166e-05    5.11199e+00    2.27211e+00    5.64232e-01    5.68095e-01    5.71289e-01    5.68319e-01    1.41492e-01    1.42452e-01    1.43255e-01    1.40753e-01    2.89087e+00    9.75851e-01    7.22717e-01    5.35617e-01    7.22717e-01    2.43963e-01    1.33904e-01    1.33904e-01    2.43963e-01
    3.00000e+01    1.00000e+00   -1.76720e-03   -4.93723e-05    5.11225e+00    2.27223e+00    5.64758e-01    5.68132e-01    5.70820e-01    5.68334e-01    1.41568e-01    1.42393e-01    1.43079e-01    1.40932e-01    2.89087e+00    9.75851e-01    7.22717e-01    5.35617e-01    7.22717e-01    2.43963e-01    1.33904e-01    1.33904e-01    2.43963e-01
    3.10000e+01    1.00000e+00   -1.47980e-03   -3.96235e-05    5.11245e+00    2.27233e+00    5.65279e-01    5.68160e-01    5.70356e-01    5.68330e-01    1.41644e-01    1.42335e-01    1.42904e-01    1.41107e-01    2.89087e+00    9.75851e-01    7.22717e-01    5.35617e-01    7.22717e-01    2.43963e-01    1.33904e-01    1.33904e-01    2.43963e-01
    3.20000e+01    1.00000e+00   -1.20391e-03   -2.64173e-05    5.11259e+00    2.27240e+00    5.65783e-01    5.68183e-01    5.69916e-01    5.68307e-01    1.41715e-01    1.42279e-01    1.42731e-01    1.41273e-01    2.89087e+00    9.75851e-01    7.22717e-01    5.35617e-01    7.22717e-01    2.43963e-01    1.33904e-01    1.33904e-01    2.43963e-01
    3.30000e+01    1.00000e+00   -9.47305e-04   -1.12410e-05    5.11269e+00    2.27246e+00    5.66256e-01    5.68196e-01    5.69508e-01    5.68267e-01    1.41783e-01    1.42228e-01    1.42572e-01    1.41426e-01    2.89087e+00    9.75851e-01    7.22717e-01    5.35617e-01    7.22717e-01    2.43963e-01    1.33904e-01    1.33904e-01    2.43963e-01
    3.40000e+01    1.00000e+00   -7.13959e-04    4.91203e-06    5.11276e+00    2.27249e+00    5.66686e-01    5.68213e-01    5.69139e-01    5.68224e-01    1.41844e-01    1.42178e-01    1.42424e-01    1.41561e-01    2.89087e+00    9.75851e-01    7.22717e-01    5.35617e-01    7.22717e-01    2.43963e-01    1.33904e-01    1.33904e-01    2.43963e-01
    3.50000e+01    1.00000e+00   -5.11047e-04    2.46273e-05    5.11279e+00    2.27251e+00    5.67073e-01    5.68208e-01    5.68828e-01    5.68155e-01    1.41899e-01    1.42145e-01    1.42291e-01    1.41681e-01    2.89087e+00    9.75851e-01    7.22717e-01    5.35617e-01    7.22717e-01    2.43963e-01    1.33904e-01    1.33904e-01    2.43963e-01
    3.60000e+01    1.00000e+00   -3.38637e-04    5.19848e-05    5.11282e+00    2.27252e+00    5.67394e-01    5.68248e-01    5.68562e-01    5.68086e-01    1.41946e-01    1.42109e-01    1.42176e-01    1.41775e-01    2.89087e+00    9.75851e-01    7.22717e-01    5.35617e-01    7.22717e-01    2.43963e-01    1.33904e-01    1.33904e-01    2.43963e-01
    3.70000e+01    1.00000e+00   -2.16169e-04    6.39076e-05    5.11286e+00    2.27254e+00    5.67676e-01    5.68205e-01    5.68434e-01    5.68013e-01    1.41974e-01    1.42089e-01    1.42080e-01    1.41849e-01    2.89087e+00    9.75851e-01    7.22717e-01    5.35617e-01    7.22717e-01    2.43963e-01    1.33904e-01    1.33904e-01    2.43963e-01
    3.80000e+01    1.00000e+00   -1.24990e-04    1.01338e-04    5.11291e+00    2.27257e+00    5.67841e-01    5.68257e-01    5.68250e-01    5.67939e-01    1.42010e-01    1.42120e-01    1.42025e-01    1.41905e-01    2.89087e+00    9.75851e-01    7.22717e-01    5.35617e-01    7.22717e-01    2.43963e-01    1.33904e-01    1.33904e-01    2.43963e-01
    3.90000e+01    1.00000e+00    0.00000e+00    0.00000e+00    5.11291e+00    2.27257e+00    5.68000e-01    5.68250e-01    5.68000e-01    5.68103e-01    1.42039e-01    1.41957e-01    1.42039e-01    1.41957e-01    2.89087e+00    9.75851e-01    7.22717e-01    5.35617e-01    7.22717e-01    2.43963e-01    1.33904e-01    1.33904e-01    2.43963e-01
    0.00000e+00    2.00000e+00    0.00000e+00    0.00000e+00    5.10101e+00    2.26665e+00    5.66946e-01    5.66873e-01    5.66946e-01    5.66579e-01    1.41871e-01    1.41639e-01    1.41871e-01    1.41639e-01    2.89087e+00    9.75851e-01    7.22717e-01    5.35617e-01    7.22717e-01    2.43963e-01    1.33904e-01    1.33904e-01    2.43963e-01
    1.00000e+00    2.00000e+00   -3.55857e-04   -3.37694e-04    5.10076e+00    2.26654e+00    5.66438e-01    5.65948e-01    5.67613e-01    5.67155e-01    1.41484e-01    1.41793e-01    1.42061e-01    1.41730e-01    2.89087e+00    9.75851e-01    7.22717e-01    5.35617e-01    7.22717e-01    2.43963e-01    1.33904e-01    1.33904e-01    2.43963e-01
    2.00000e+00    2.00000e+00   -7.33326e-04   -3.12881e-04    5.10088e+00    2.26660e+00    5.65717e-01    5.66078e-01    5.68250e-01    5.67183e-01    1.41343e-01    1.41939e-01    1.42193e-01    1.41580e-01    2.89087e+00    9.75851e-01    7.22717e-01    5.35617e-01    7.22717e-01    2.43963e-01    1.33904e-01    1.33904e-01    2.43963e-01
    3.00000e+00    2.00000e+00   -1.11112e-03   -2.26709e-04    5.10104e+00    2.26668e+00    5.65170e-01    5.66219e-01    5.68946e-01    5.66998e-01    1.41189e-01    1.42134e-01    1.42323e-01    1.41376e-01    2.89087e+00    9.75851e-01    7.22717e-01    5.35617e-01    7.22717e-01    2.43963e-01    1.33904e-01    1.33904e-01    2.43963e-01
    4.00000e+00    2.00000e+00   -1.53355e-03   -1.62579e-04    5.10106e+00    2.26671e+00    5.64492e-01    5.66283e-01    5.69713e-01    5.66842e-01    1.41063e-01    1.42314e-01    1.42500e-01    1.41148e-01    2.89087e+00    9.75851e-01    7.22717e-01    5.35617e-01    7.22717e-01    2.43963e-01    1.33904e-01    1.33904e-01    2.43963e-01
    5.00000e+00    2.00000e+00   -1.96816e-03   -1.05973e-04    5.10124e+00    2.26680e+00    5.63761e-01    5.66384e-01    5.70477e-01    5.66763e-01    1.40949e-01    1.42495e-01    1.42692e-01    1.40913e-01    2.89087e+00    9.75851e-01    7.22717e-01    5.35617e-01    7.22717e-01    2.43963e-01    1.33904e-01    1.33904e-01    2.43963e-01