TITLE="LBM output"
VARIABLES = "X", "Y", "U","V","density","f0","f1","f2","f3","f4","f5","f6","f7","f8","feq0","feq1","feq2","feq3","feq4","feq5","feq6","feq7","feq8",
ZONE T = "fluid", I=40, J=40, F=POINT
SOLUTIONTIME=502
    0.00000e+00    0.00000e+00    0.00000e+00    0.00000e+00    5.07416e+00    2.25497e+00    5.63796e-01    5.63793e-01    5.63796e-01    5.63793e-01    1.41068e-01    1.40936e-01    1.41068e-01    1.40936e-01    2.84882e+00    9.61658e-01    7.12205e-01    5.27827e-01    7.12205e-01    2.40415e-01    1.31957e-01    1.31957e-01    2.40415e-01
    1.00000e+00    0.00000e+00    0.00000e+00    0.00000e+00    5.07461e+00    2.25525e+00    5.63685e-01    5.64010e-01    5.63818e-01    5.64010e-01    1.40964e-01    1.40956e-01    1.40964e-01    1.40956e-01    2.84882e+00    9.61658e-01    7.12205e-01    5.27827e-01    7.12205e-01    2.40415e-01    1.31957e-01    1.31957e-01    2.40415e-01
    2.00000e+00    0.00000e+00    0.00000e+00    0.00000e+00    5.07355e+00    2.25477e+00    5.63954e-01    5.63755e-01    5.63555e-01    5.63755e-01    1.40958e-01    1.40922e-01    1.40958e-01    1.40922e-01    2.84882e+00    9.61658e-01    7.12205e-01    5.27827e-01    7.12205e-01    2.40415e-01    1.31957e-01    1.31957e-01    2.40415e-01
    3.00000e+00    0.00000e+00    0.00000e+00    0.00000e+00    5.07231e+00    2.25418e+00    5.63455e-01    5.63815e-01    5.63528e-01    5.63815e-01    1.40921e-01    1.40837e-01    1.40921e-01    1.40837e-01    2.84882e+00    9.61658e-01    7.12205e-01    5.27827e-01    7.12205e-01    2.40415e-01    1.31957e-01    1.31957e-01    2.40415e-01
    4.00000e+00    0.00000e+00    0.00000e+00    0.00000e+00    5.07108e+00    2.25363e+00    5.63628e-01    5.63533e-01    5.63262e-01    5.63533e-01    1.40896e-01    1.40854e-01    1.40896e-01    1.40854e-01    2.84882e+00    9.61658e-01    7.12205e-01    5.27827e-01    7.12205e-01    2.40415e-01    1.31957e-01    1.31957e-01    2.40415e-01
    5.00000e+00    0.00000e+00    0.00000e+00    0.00000e+00    5.06918e+00    2.25274e+00    5.63224e-01    5.63371e-01    5.63095e-01    5.63371e-01    1.40923e-01    1.40766e-01    1.40923e-01    1.40766e-01    2.84882e+00    9.61658e-01    7.12205e-01    5.27827e-01    7.12205e-01    2.40415e-01    1.31957e-01    1.31957e-01    2.40415e-01
    6.00000e+00    0.00000e+00    0.00000e+00    0.00000e+00    5.06747e+00    2.25195e+00    5.63152e-01    5.63149e-01    5.62858e-01    5.63149e-01    1.40933e-01    1.40668e-01    1.40933e-01    1.40668e-01    2.84882e+00    9.61658e-01    7.12205e-01    5.27827e-01    7.12205e-01    2.40415e-01    1.31957e-01    1.31957e-01    2.40415e-01
    7.00000e+00    0.00000e+00    0.00000e+00    0.00000e+00    5.06548e+00    2.25105e+00    5.62857e-01    5.62957e-01    5.62645e-01    5.62957e-01    1.40957e-01    1.40553e-01    1.40957e-01    1.40553e-01    2.84882e+00    9.61658e-01    7.12205e-01    5.27827e-01    7.12205e-01    2.40415e-01    1.31957e-01    1.31957e-01    2.40415e-01
    8.00000e+00    0.00000e+00    0.00000e+00    0.00000e+00    5.06359e+00    2.25019e+00    5.62682e-01    5.62738e-01    5.62424e-01    5.62738e-01    1.40999e-01    1.40413e-01    1.40999e-01    1.40413e-01    2.84882e+00    9.61658e-01    7.12205e-01    5.27827e-01    7.12205e-01    2.40415e-01    1.31957e-01    1.31957e-01    2.40415e-01
    9.00000e+00    0.00000e+00    0.00000e+00    0.00000e+00    5.06176e+00    2.24936e+00    5.62438e-01    5.62536e-01    5.62233e-01    5.62536e-01    1.41049e-01    1.40281e-01    1.41049e-01    1.40281e-01    2.84882e+00    9.61658e-01    7.12205e-01    5.27827e-01    7.12205e-01    2.40415e-01    1.31957e-01    1.31957e-01    2.40415e-01
    1.00000e+01    0.00000e+00    0.00000e+00    0.00000e+00    5.06017e+00    2.24864e+00    5.62260e-01    5.62353e-01    5.62067e-01    5.62353e-01    1.41111e-01    1.40136e-01    1.41111e-01    1.40136e-01    2.84882e+00    9.61658e-01    7.12205e-01    5.27827e-01    7.12205e-01    2.40415e-01    1.31957e-01    1.31957e-01    2.40415e-01
    1.10000e+01    0.00000e+00    0.00000e+00    0.00000e+00    5.05884e+00    2.24805e+00    5.62083e-01    5.62203e-01    5.61942e-01    5.62203e-01    1.41183e-01    1.39995e-01    1.41183e-01    1.39995e-01    2.84882e+00    9.61658e-01    7.12205e-01    5.27827e-01    7.12205e-01    2.40415e-01    1.31957e-01    1.31957e-01    2.40415e-01
    1.20000e+01    0.00000e+00    0.00000e+00    0.00000e+00    5.05787e+00    2.24763e+00    5.61959e-01    5.62087e-01    5.61859e-01    5.62087e-01    1.41265e-01    1.39859e-01    1.41265e-01    1.39859e-01    2.84882e+00    9.61658e-01    7.12205e-01    5.27827e-01    7.12205e-01    2.40415e-01    1.31957e-01    1.31957e-01    2.40415e-01
    1.30000e+01    0.00000e+00    0.00000e+00    0.00000e+00    5.05728e+00    2.24738e+00    5.61869e-01    5.62014e-01    5.61823e-01    5.62014e-01    1.41353e-01    1.39736e-01    1.41353e-01    1.39736e-01    2.84882e+00    9.61658e-01    7.12205e-01    5.27827e-01    7.12205e-01    2.40415e-01    1.31957e-01    1.31957e-01    2.40415e-01
    1.40000e+01    0.00000e+00    0.00000e+00    0.00000e+00    5.05709e+00    2.24732e+00    5.61831e-01    5.61982e-01    5.61832e-01    5.61982e-01    1.41445e-01    1.39625e-01    1.41445e-01    1.39625e-01    2.84882e+00    9.61658e-01    7.12205e-01    5.27827e-01    7.12205e-01    2.40415e-01    1.31957e-01    1.31957e-01    2.40415e-01
    1.50000e+01    0.00000e+00    0.00000e+00    0.00000e+00    5.05727e+00    2.24743e+00    5.61835e-01    5.61991e-01    5.61883e-01    5.61991e-01    1.41537e-01    1.39532e-01    1.41537e-01    1.39532e-01    2.84882e+00    9.61658e-01    7.12205e-01    5.27827e-01    7.12205e-01    2.40415e-01    1.31957e-01    1.31957e-01    2.40415e-01
    1.60000e+01    0.00000e+00    0.00000e+00    0.00000e+00    5.05779e+00    2.24770e+00    5.61883e-01    5.62036e-01    5.61970e-01    5.62036e-01    1.41625e-01    1.39457e-01    1.41625e-01    1.39457e-01    2.84882e+00    9.61658e-01    7.12205e-01    5.27827e-01    7.12205e-01    2.40415e-01    1.31957e-01    1.31957e-01    2.40415e-01
    1.70000e+01    0.00000e+00    0.00000e+00    0.00000e+00    5.05858e+00    2.24810e+00    5.61966e-01    5.62110e-01    5.62084e-01    5.62110e-01    1.41704e-01    1.39402e-01    1.41704e-01    1.39402e-01    2.84882e+00    9.61658e-01    7.12205e-01    5.27827e-01    7.12205e-01    2.40415e-01    1.31957e-01    1.31957e-01    2.40415e-01
    1.80000e+01    0.00000e+00    0.00000e+00    0.00000e+00    5.05957e+00    2.24859e+00    5.62079e-01    5.62203e-01    5.62215e-01    5.62203e-01    1.41772e-01    1.39367e-01    1.41772e-01    1.39367e-01    2.84882e+00    9.61658e-01    7.12205e-01    5.27827e-01    7.12205e-01    2.40415e-01    1.31957e-01    1.31957e-01    2.40415e-01
    1.90000e+01    0.00000e+00    0.00000e+00    0.00000e+00    5.06067e+00    2.24913e+00    5.62210e-01    5.62308e-01    5.62356e-01    5.62308e-01    1.41823e-01    1.39353e-01    1.41823e-01    1.39353e-01    2.84882e+00    9.61658e-01    7.12205e-01    5.27827e-01    7.12205e-01    2.40415e-01    1.31957e-01    1.31957e-01    2.40415e-01
    2.00000e+01    0.00000e+00    0.00000e+00    0.00000e+00    5.06179e+00    2.24969e+00    5.62351e-01    5.62415e-01    5.62494e-01    5.62415e-01    1.41854e-01    1.39359e-01    1.41854e-01    1.39359e-01    2.84882e+00    9.61658e-01    7.12205e-01    5.27827e-01    7.12205e-01    2.40415e-01    1.31957e-01    1.31957e-01    2.40415e-01
    2.10000e+01    0.00000e+00    0.00000e+00    0.00000e+00    5.06286e+00    2.25022e+00    5.62490e-01    5.62515e-01    5.62621e-01    5.62515e-01    1.41865e-01    1.39382e-01    1.41865e-01    1.39382e-01    2.84882e+00    9.61658e-01    7.12205e-01    5.27827e-01    7.12205e-01    2.40415e-01    1.31957e-01    1.31957e-01    2.40415e-01
    2.20000e+01    0.00000e+00    0.00000e+00    0.00000e+00    5.06379e+00    2.25070e+00    5.62619e-01    5.62601e-01    5.62729e-01    5.62601e-01    1.41852e-01    1.39422e-01    1.41852e-01    1.39422e-01    2.84882e+00    9.61658e-01    7.12205e-01    5.27827e-01    7.12205e-01    2.40415e-01    1.31957e-01    1.31957e-01    2.40415e-01
    2.30000e+01    0.00000e+00    0.00000e+00    0.00000e+00    5.06455e+00    2.25108e+00    5.62729e-01    5.62667e-01    5.62812e-01    5.62667e-01    1.41817e-01    1.39477e-01    1.41817e-01    1.39477e-01    2.84882e+00    9.61658e-01    7.12205e-01    5.27827e-01    7.12205e-01    2.40415e-01    1.31957e-01    1.31957e-01    2.40415e-01
    2.40000e+01    0.00000e+00    0.00000e+00    0.00000e+00    5.06507e+00    2.25136e+00    5.62814e-01    5.62710e-01    5.62867e-01    5.62710e-01    1.41760e-01    1.39544e-01    1.41760e-01    1.39544e-01    2.84882e+00    9.61658e-01    7.12205e-01    5.27827e-01    7.12205e-01    2.40415e-01    1.31957e-01    1.31957e-01    2.40415e-01
    2.50000e+01    0.00000e+00    0.00000e+00    0.00000e+00    5.06536e+00    2.25153e+00    5.62871e-01    5.62729e-01    5.62892e-01    5.62729e-01    1.41686e-01    1.39619e-01    1.41686e-01    1.39619e-01    2.84882e+00    9.61658e-01    7.12205e-01    5.27827e-01    7.12205e-01    2.40415e-01    1.31957e-01    1.31957e-01    2.40415e-01
    2.60000e+01    0.00000e+00    0.00000e+00    0.00000e+00    5.06540e+00    2.25157e+00    5.62897e-01    5.62723e-01    5.62889e-01    5.62723e-01    1.41594e-01    1.39703e-01    1.41594e-01    1.39703e-01    2.84882e+00    9.61658e-01    7.12205e-01    5.27827e-01    7.12205e-01    2.40415e-01    1.31957e-01    1.31957e-01    2.40415e-01
    2.70000e+01    0.00000e+00    0.00000e+00    0.00000e+00    5.06521e+00    2.25150e+00    5.62895e-01    5.62695e-01    5.62856e-01    5.62695e-01    1.41491e-01    1.39791e-01    1.41491e-01    1.39791e-01    2.84882e+00    9.61658e-01    7.12205e-01    5.27827e-01    7.12205e-01    2.40415e-01    1.31957e-01    1.31957e-01    2.40415e-01
    2.80000e+01    0.00000e+00    0.00000e+00    0.00000e+00    5.06482e+00    2.25134e+00    5.62865e-01    5.62648e-01    5.62807e-01    5.62648e-01    1.41378e-01    1.39881e-01    1.41378e-01    1.39881e-01    2.84882e+00    9.61658e-01    7.12205e-01    5.27827e-01    7.12205e-01    2.40415e-01    1.31957e-01    1.31957e-01    2.40415e-01
    2.90000e+01    0.00000e+00    0.00000e+00    0.00000e+00    5.06428e+00    2.25109e+00    5.62813e-01    5.62588e-01    5.62731e-01    5.62588e-01    1.41262e-01    1.39970e-01    1.41262e-01    1.39970e-01    2.84882e+00    9.61658e-01    7.12205e-01    5.27827e-01    7.12205e-01    2.40415e-01    1.31957e-01    1.31957e-01    2.40415e-01
    3.00000e+01    0.00000e+00    0.00000e+00    0.00000e+00    5.06363e+00    2.25079e+00    5.62741e-01    5.62517e-01    5.62660e-01    5.62517e-01    1.41142e-01    1.40059e-01    1.41142e-01    1.40059e-01    2.84882e+00    9.61658e-01    7.12205e-01    5.27827e-01    7.12205e-01    2.40415e-01    1.31957e-01    1.31957e-01    2.40415e-01
    3.10000e+01    0.00000e+00    0.00000e+00    0.00000e+00    5.06289e+00    2.25044e+00    5.62661e-01    5.62442e-01    5.62554e-01    5.62442e-01    1.41031e-01    1.40144e-01    1.41031e-01    1.40144e-01    2.84882e+00    9.61658e-01    7.12205e-01    5.27827e-01    7.12205e-01    2.40415e-01    1.31957e-01    1.31957e-01    2.40415e-01
    3.20000e+01    0.00000e+00    0.00000e+00    0.00000e+00    5.06216e+00    2.25009e+00    5.62568e-01    5.62363e-01    5.62493e-01    5.62363e-01    1.40916e-01    1.40226e-01    1.40916e-01    1.40226e-01    2.84882e+00    9.61658e-01    7.12205e-01    5.27827e-01    7.12205e-01    2.40415e-01    1.31957e-01    1.31957e-01    2.40415e-01
    3.30000e+01    0.00000e+00    0.00000e+00    0.00000e+00    5.06140e+00    2.24972e+00    5.62483e-01    5.62302e-01    5.62359e-01    5.62302e-01    1.40816e-01    1.40298e-01    1.40816e-01    1.40298e-01    2.84882e+00    9.61658e-01    7.12205e-01    5.27827e-01    7.12205e-01    2.40415e-01    1.31957e-01    1.31957e-01    2.40415e-01
    3.40000e+01    0.00000e+00    0.00000e+00    0.00000e+00    5.06078e+00    2.24942e+00    5.62384e-01    5.62221e-01    5.62357e-01    5.62221e-01    1.40727e-01    1.40362e-01    1.40727e-01    1.40362e-01    2.84882e+00    9.61658e-01    7.12205e-01    5.27827e-01    7.12205e-01    2.40415e-01    1.31957e-01    1.31957e-01    2.40415e-01
    3.50000e+01    0.00000e+00    0.00000e+00    0.00000e+00    5.06004e+00    2.24905e+00    5.62326e-01    5.62175e-01    5.62156e-01    5.62175e-01    1.40646e-01    1.40429e-01    1.40646e-01    1.40429e-01    2.84882e+00    9.61658e-01    7.12205e-01    5.27827e-01    7.12205e-01    2.40415e-01    1.31957e-01    1.31957e-01    2.40415e-01
    3.60000e+01    0.00000e+00    0.00000e+00    0.00000e+00    5.05960e+00    2.24884e+00    5.62206e-01    5.62052e-01    5.62272e-01    5.62052e-01    1.40621e-01    1.40466e-01    1.40621e-01    1.40466e-01    2.84882e+00    9.61658e-01    7.12205e-01    5.27827e-01    7.12205e-01    2.40415e-01    1.31957e-01    1.31957e-01    2.40415e-01
    3.70000e+01    0.00000e+00    0.00000e+00    0.00000e+00    5.05911e+00    2.24859e+00    5.62212e-01    5.62106e-01    5.62016e-01    5.62106e-01    1.40555e-01    1.40485e-01    1.40555e-01    1.40485e-01    2.84882e+00    9.61658e-01    7.12205e-01    5.27827e-01    7.12205e-01    2.40415e-01    1.31957e-01    1.31957e-01    2.40415e-01
    3.80000e+01    0.00000e+00    0.00000e+00    0.00000e+00    5.05863e+00    2.24837e+00    5.62087e-01    5.61979e-01    5.62163e-01    5.61979e-01    1.40518e-01    1.40512e-01    1.40518e-01    1.40512e-01    2.84882e+00    9.61658e-01    7.12205e-01    5.27827e-01    7.12205e-01    2.40415e-01    1.31957e-01    1.31957e-01    2.40415e-01
    3.90000e+01    0.00000e+00    0.00000e+00    0.00000e+00    5.05892e+00    2.24853e+00    5.62100e-01    5.62105e-01    5.62100e-01    5.62105e-01    1.40533e-01    1.40461e-01    1.40533e-01    1.40461e-01    2.84882e+00    9.61658e-01    7.12205e-01    5.27827e-01    7.12205e-01    2.40415e-01    1.31957e-01    1.31957e-01    2.40415e-01
    0.00000e+00    1.00000e+00    0.00000e+00    0.00000e+00    5.07463e+00    2.25525e+00    5.64011e-01    5.63688e-01    5.64011e-01    5.63824e-01    1.40968e-01    1.40950e-01    1.40968e-01    1.40950e-01    2.84882e+00    9.61658e-01    7.12205e-01    5.27827e-01    7.12205e-01    2.40415e-01    1.31957e-01    1.31957e-01    2.40415e-01
    1.00000e+00    1.00000e+00   -1.73169e-04   -1.22431e-04    5.07405e+00    2.25499e+00    5.63608e-01    5.63606e-01    5.64159e-01    5.63968e-01    1.40800e-01    1.40932e-01    1.41094e-01    1.40897e-01    2.84882e+00    9.61658e-01    7.12205e-01    5.27827e-01    7.12205e-01    2.40415e-01    1.31957e-01    1.31957e-01    2.40415e-01
    2.00000e+00    1.00000e+00   -2.32848e-04   -7.67488e-05    5.07319e+00    2.25460e+00    5.63225e-01    5.63616e-01    5.64024e-01    5.63858e-01    1.40919e-01    1.40943e-01    1.41183e-01    1.40826e-01    2.84882e+00    9.61658e-01    7.12205e-01    5.27827e-01    7.12205e-01    2.40415e-01    1.31957e-01    1.31957e-01    2.40415e-01
    3.00000e+00    1.00000e+00   -2.91884e-04   -1.25780e-04    5.07213e+00    2.25411e+00    5.63173e-01    5.63292e-01    5.64158e-01    5.63704e-01    1.40869e-01    1.40867e-01    1.41230e-01    1.40732e-01    2.84882e+00    9.61658e-01    7.12205e-01    5.27827e-01    7.12205e-01    2.40415e-01    1.31957e-01    1.31957e-01    2.40415e-01
    4.00000e+00    1.00000e+00   -4.42054e-04   -7.01793e-05    5.07077e+00    2.25348e+00    5.62777e-01    5.63280e-01    5.64257e-01    5.63475e-01    1.40825e-01    1.40845e-01    1.41286e-01    1.40545e-01    2.84882e+00    9.61658e-01    7.12205e-01    5.27827e-01    7.12205e-01    2.40415e-01    1.31957e-01    1.31957e-01    2.40415e-01
    5.00000e+00    1.00000e+00   -6.35890e-04   -6.35814e-05    5.06910e+00    2.25271e+00    5.62329e-01    5.63018e-01    5.64466e-01    5.63209e-01    1.40782e-01    1.40838e-01    1.41391e-01    1.40361e-01    2.84882e+00    9.61658e-01    7.12205e-01    5.27827e-01    7.12205e-01    2.40415e-01    1.31957e-01    1.31957e-01    2.40415e-01
    6.00000e+00    1.00000e+00   -8.72156e-04   -7.18122e-05    5.06732e+00    2.25189e+00    5.61734e-01    5.62845e-01    5.64668e-01    5.63050e-01    1.40658e-01    1.40831e-01    1.41481e-01    1.40168e-01    2.84882e+00    9.61658e-01    7.12205e-01    5.27827e-01    7.12205e-01    2.40415e-01    1.31957e-01    1.31957e-01    2.40415e-01
    7.00000e+00    1.00000e+00   -1.12553e-03   -7.64669e-05    5.06546e+00    2.25103e+00    5.61113e-01    5.62599e-01    5.64915e-01    5.62816e-01    1.40561e-01    1.40847e-01    1.41596e-01    1.39983e-01    2.84882e+00    9.61658e-01    7.12205e-01    5.27827e-01    7.12205e-01    2.40415e-01    1.31957e-01    1.31957e-01    2.40415e-01
    8.00000e+00    1.00000e+00   -1.40721e-03   -7.47953e-05    5.06361e+00    2.25019e+00    5.60455e-01    5.62391e-01    5.65207e-01    5.62597e-01    1.40441e-01    1.40860e-01    1.41714e-01    1.39759e-01    2.84882e+00    9.61658e-01    7.12205e-01    5.27827e-01    7.12205e-01    2.40415e-01    1.31957e-01    1.31957e-01    2.40415e-01
    9.00000e+00    1.00000e+00   -1.70953e-03   -7.64016e-05    5.06185e+00    2.24939e+00    5.59755e-01    5.62187e-01    5.65537e-01    5.62397e-01    1.40314e-01    1.40893e-01    1.41838e-01    1.39546e-01    2.84882e+00    9.61658e-01    7.12205e-01    5.27827e-01    7.12205e-01    2.40415e-01    1.31957e-01    1.31957e-01    2.40415e-01
    1.00000e+01    1.00000e+00   -2.02170e-03   -7.56640e-05    5.06030e+00    2.24868e+00    5.59058e-01    5.62016e-01    5.65901e-01    5.62220e-01    1.40185e-01    1.40935e-01    1.41968e-01    1.39331e-01    2.84882e+00    9.61658e-01    7.12205e-01    5.27827e-01    7.12205e-01    2.40415e-01    1.31957e-01    1.31957e-01    2.40415e-01
    1.10000e+01    1.00000e+00   -2.33701e-03   -7.39959e-05    5.05901e+00    2.24811e+00    5.58380e-01    5.61875e-01    5.66297e-01    5.62071e-01    1.40061e-01    1.40991e-01    1.42103e-01    1.39127e-01    2.84882e+00    9.61658e-01    7.12205e-01    5.27827e-01    7.12205e-01    2.40415e-01    1.31957e-01    1.31957e-01    2.40415e-01
    1.20000e+01    1.00000e+00   -2.64897e-03   -6.99931e-05    5.05806e+00    2.24769e+00    5.57742e-01    5.61779e-01    5.66720e-01    5.61961e-01    1.39944e-01    1.41055e-01    1.42240e-01    1.38931e-01    2.84882e+00    9.61658e-01    7.12205e-01    5.27827e-01    7.12205e-01    2.40415e-01    1.31957e-01    1.31957e-01    2.40415e-01
    1.30000e+01    1.00000e+00   -2.94962e-03   -6.52323e-05    5.05748e+00    2.24744e+00    5.57157e-01    5.61728e-01    5.67160e-01    5.61893e-01    1.39838e-01    1.41130e-01    1.42377e-01    1.38755e-01    2.84882e+00    9.61658e-01    7.12205e-01    5.27827e-01    7.12205e-01    2.40415e-01    1.31957e-01    1.31957e-01    2.40415e-01
    1.40000e+01    1.00000e+00   -3.23126e-03   -5.85332e-05    5.05728e+00    2.24737e+00    5.56642e-01    5.61725e-01    5.67605e-01    5.61867e-01    1.39747e-01    1.41211e-01    1.42513e-01    1.38599e-01    2.84882e+00    9.61658e-01    7.12205e-01    5.27827e-01    7.12205e-01    2.40415e-01    1.31957e-01    1.31957e-01    2.40415e-01
    1.50000e+01    1.00000e+00   -3.48687e-03   -5.08018e-05    5.05744e+00    2.24747e+00    5.56206e-01    5.61766e-01    5.68043e-01    5.61883e-01    1.39673e-01    1.41294e-01    1.42641e-01    1.38465e-01    2.84882e+00    9.61658e-01    7.12205e-01    5.27827e-01    7.12205e-01    2.40415e-01    1.31957e-01    1.31957e-01    2.40415e-01
    1.60000e+01    1.00000e+00   -3.70971e-03   -4.14420e-05    5.05792e+00    2.24771e+00    5.55857e-01    5.61848e-01    5.68456e-01    5.61936e-01    1.39617e-01    1.41377e-01    1.42760e-01    1.38356e-01    2.84882e+00    9.61658e-01    7.12205e-01    5.27827e-01    7.12205e-01    2.40415e-01    1.31957e-01    1.31957e-01    2.40415e-01
    1.70000e+01    1.00000e+00   -3.89332e-03   -3.01366e-05    5.05867e+00    2.24809e+00    5.55599e-01    5.61963e-01    5.68827e-01    5.62016e-01    1.39581e-01    1.41456e-01    1.42865e-01    1.38273e-01    2.84882e+00    9.61658e-01    7.12205e-01    5.27827e-01    7.12205e-01    2.40415e-01    1.31957e-01    1.31957e-01    2.40415e-01
    1.80000e+01    1.00000e+00   -4.03208e-03   -1.76256e-05    5.05960e+00    2.24855e+00    5.55435e-01    5.62104e-01    5.69140e-01    5.62119e-01    1.39564e-01    1.41526e-01    1.42950e-01    1.38216e-01    2.84882e+00    9.61658e-01    7.12205e-01    5.27827e-01    7.12205e-01    2.40415e-01    1.31957e-01    1.31957e-01    2.40415e-01
    1.90000e+01    1.00000e+00   -4.12153e-03   -4.28348e-06    5.06065e+00    2.24907e+00    5.55364e-01    5.62260e-01    5.69377e-01    5.62235e-01    1.39566e-01    1.41584e-01    1.43011e-01    1.38185e-01    2.84882e+00    9.61658e-01    7.12205e-01    5.27827e-01    7.12205e-01    2.40415e-01    1.31957e-01    1.31957e-01    2.40415e-01
    2.00000e+01    1.00000e+00   -4.15841e-03    1.03290e-05    5.06172e+00    2.24960e+00    5.55383e-01    5.62421e-01    5.69525e-01    5.62353e-01    1.39585e-01    1.41626e-01    1.43047e-01    1.38180e-01    2.84882e+00    9.61658e-01    7.12205e-01    5.27827e-01    7.12205e-01    2.40415e-01    1.31957e-01    1.31957e-01    2.40415e-01
    2.10000e+01    1.00000e+00   -4.14112e-03    2.49051e-05    5.06274e+00    2.25011e+00    5.55488e-01    5.62577e-01    5.69573e-01    5.62467e-01    1.39621e-01    1.41649e-01    1.43053e-01    1.38201e-01    2.84882e+00    9.61658e-01    7.12205e-01    5.27827e-01    7.12205e-01    2.40415e-01    1.31957e-01    1.31957e-01    2.40415e-01
    2.20000e+01    1.00000e+00   -4.06996e-03    3.81447e-05    5.06364e+00    2.25057e+00    5.55671e-01    5.62719e-01    5.69515e-01    5.62572e-01    1.39669e-01    1.41652e-01    1.43028e-01    1.38246e-01    2.84882e+00    9.61658e-01    7.12205e-01    5.27827e-01    7.12205e-01    2.40415e-01    1.31957e-01    1.31957e-01    2.40415e-01
    2.30000e+01    1.00000e+00   -3.94688e-03    5.01073e-05    5.06437e+00    2.25095e+00    5.55925e-01    5.62837e-01    5.69350e-01    5.62659e-01    1.39728e-01    1.41634e-01    1.42973e-01    1.38315e-01    2.84882e+00    9.61658e-01    7.12205e-01    5.27827e-01    7.12205e-01    2.40415e-01    1.31957e-01    1.31957e-01    2.40415e-01
    2.40000e+01    1.00000e+00   -3.77555e-03    6.00505e-05    5.06488e+00    2.25123e+00    5.56239e-01    5.62928e-01    5.69080e-01    5.62724e-01    1.39796e-01    1.41596e-01    1.42887e-01    1.38405e-01    2.84882e+00    9.61658e-01    7.12205e-01    5.27827e-01    7.12205e-01    2.40415e-01    1.31957e-01    1.31957e-01    2.40415e-01
    2.50000e+01    1.00000e+00   -3.56115e-03    6.62727e-05    5.06516e+00    2.25139e+00    5.56605e-01    5.62987e-01    5.68714e-01    5.62770e-01    1.39868e-01    1.41539e-01    1.42773e-01    1.38515e-01    2.84882e+00    9.61658e-01    7.12205e-01    5.27827e-01    7.12205e-01    2.40415e-01    1.31957e-01    1.31957e-01    2.40415e-01
    2.60000e+01    1.00000e+00   -3.30983e-03    6.91894e-05    5.06521e+00    2.25145e+00    5.57011e-01    5.63013e-01    5.68262e-01    5.62795e-01    1.39943e-01    1.41465e-01    1.42634e-01    1.38642e-01    2.84882e+00    9.61658e-01    7.12205e-01    5.27827e-01    7.12205e-01    2.40415e-01    1.31957e-01    1.31957e-01    2.40415e-01
    2.70000e+01    1.00000e+00   -3.02832e-03    6.87217e-05    5.06504e+00    2.25139e+00    5.57449e-01    5.63008e-01    5.67737e-01    5.62798e-01    1.40018e-01    1.41379e-01    1.42474e-01    1.38784e-01    2.84882e+00    9.61658e-01    7.12205e-01    5.27827e-01    7.12205e-01    2.40415e-01    1.31957e-01    1.31957e-01    2.40415e-01
    2.80000e+01    1.00000e+00   -2.72408e-03    6.50545e-05    5.06468e+00    2.25124e+00    5.57908e-01    5.62974e-01    5.67159e-01    5.62783e-01    1.40091e-01    1.41282e-01    1.42294e-01    1.38940e-01    2.84882e+00    9.61658e-01    7.12205e-01    5.27827e-01    7.12205e-01    2.40415e-01    1.31957e-01    1.31957e-01    2.40415e-01
    2.90000e+01    1.00000e+00   -2.40478e-03    5.71258e-05    5.06416e+00    2.25102e+00    5.58381e-01    5.62915e-01    5.66542e-01    5.62755e-01    1.40161e-01    1.41179e-01    1.42104e-01    1.39105e-01    2.84882e+00    9.61658e-01    7.12205e-01    5.27827e-01    7.12205e-01    2.40415e-01    1.31957e-01    1.31957e-01    2.40415e-01
    3.00000e+01    1.00000e+00   -2.07734e-03    4.76310e-05    5.06353e+00    2.25073e+00    5.58860e-01    5.62840e-01    5.65905e-01    5.62716e-01    1.40225e-01    1.41074e-01    1.41904e-01    1.39278e-01    2.84882e+00    9.61658e-01    7.12205e-01    5.27827e-01    7.12205e-01    2.40415e-01    1.31957e-01    1.31957e-01    2.40415e-01
    3.10000e+01    1.00000e+00   -1.74873e-03    3.59143e-05    5.06283e+00    2.25041e+00    5.59338e-01    5.62748e-01    5.65262e-01    5.62667e-01    1.40288e-01    1.40969e-01    1.41702e-01    1.39454e-01    2.84882e+00    9.61658e-01    7.12205e-01    5.27827e-01    7.12205e-01    2.40415e-01    1.31957e-01    1.31957e-01    2.40415e-01
    3.20000e+01    1.00000e+00   -1.42868e-03    2.63869e-05    5.06212e+00    2.25007e+00    5.59807e-01    5.62656e-01    5.64647e-01    5.62607e-01    1.40339e-01    1.40870e-01    1.41493e-01    1.39632e-01    2.84882e+00    9.61658e-01    7.12205e-01    5.27827e-01    7.12205e-01    2.40415e-01    1.31957e-01    1.31957e-01    2.40415e-01
    3.30000e+01    1.00000e+00   -1.12591e-03    1.37403e-05    5.06141e+00    2.24973e+00    5.60255e-01    5.62542e-01    5.64061e-01    5.62535e-01    1.40393e-01    1.40784e-01    1.41308e-01    1.39806e-01    2.84882e+00    9.61658e-01    7.12205e-01    5.27827e-01    7.12205e-01    2.40415e-01    1.31957e-01    1.31957e-01    2.40415e-01
    3.40000e+01    1.00000e+00   -8.38075e-04    2.45476e-06    5.06075e+00    2.24941e+00    5.60671e-01    5.62471e-01    5.63503e-01    5.62495e-01    1.40432e-01    1.40687e-01    1.41118e-01    1.39964e-01    2.84882e+00    9.61658e-01    7.12205e-01    5.27827e-01    7.12205e-01    2.40415e-01    1.31957e-01    1.31957e-01    2.40415e-01
    3.50000e+01    1.00000e+00   -5.82780e-04   -9.60598e-07    5.06012e+00    2.24910e+00    5.61077e-01    5.62345e-01    5.63042e-01    5.62389e-01    1.40471e-01    1.40634e-01    1.40943e-01    1.40123e-01    2.84882e+00    9.61658e-01    7.12205e-01    5.27827e-01    7.12205e-01    2.40415e-01    1.31957e-01    1.31957e-01    2.40415e-01
    3.60000e+01    1.00000e+00   -3.65292e-04    2.87190e-05    5.05961e+00    2.24885e+00    5.61399e-01    5.62353e-01    5.62635e-01    5.62280e-01    1.40496e-01    1.40589e-01    1.40766e-01    1.40246e-01    2.84882e+00    9.61658e-01    7.12205e-01    5.27827e-01    7.12205e-01    2.40415e-01    1.31957e-01    1.31957e-01    2.40415e-01
    3.70000e+01    1.00000e+00   -2.19892e-04    9.84455e-06    5.05921e+00    2.24865e+00    5.61707e-01    5.62192e-01    5.62458e-01    5.62179e-01    1.40491e-01    1.40541e-01    1.40653e-01    1.40342e-01    2.84882e+00    9.61658e-01    7.12205e-01    5.27827e-01    7.12205e-01    2.40415e-01    1.31957e-01    1.31957e-01    2.40415e-01
    3.80000e+01    1.00000e+00   -1.17006e-04    5.62627e-05    5.05886e+00    2.24848e+00    5.61816e-01    5.62203e-01    5.62197e-01    5.62048e-01    1.40520e-01    1.40604e-01    1.40561e-01    1.40434e-01    2.84882e+00    9.61658e-01    7.12205e-01    5.27827e-01    7.12205e-01    2.40415e-01    1.31957e-01    1.31957e-01    2.40415e-01
    3.90000e+01    1.00000e+00    0.00000e+00    0.00000e+00    5.05861e+00    2.24836e+00    5.61979e-01    5.62159e-01    5.61979e-01    5.62075e-01    1.40527e-01    1.40504e-01    1.40527e-01    1.40504e-01    2.84882e+00    9.61658e-01    7.12205e-01    5.27827e-01    7.12205e-01    2.40415e-01    1.31957e-01    1.31957e-01    2.40415e-01
    0.00000e+00    2.00000e+00    0.00000e+00    0.00000e+00    5.07359e+00    2.25479e+00    5.63772e-01    5.63954e-01    5.63772e-01    5.63556e-01    1.40903e-01    1.40970e-01    1.40903e-01    1.40970e-01    2.84882e+00    9.61658e-01    7.12205e-01    5.27827e-01    7.12205e-01    2.40415e-01    1.31957e-01    1.31957e-01    2.40415e-01
    1.00000e+00    2.00000e+00   -1.86818e-04   -2.27787e-05    5.07317e+00    2.25459e+00    5.63614e-01    5.63375e-01    5.64254e-01    5.63462e-01    1.40915e-01    1.41010e-01    1.41083e-01    1.40871e-01    2.84882e+00    9.61658e-01    7.12205e-01    5.27827e-01    7.12205e-01    2.40415e-01    1.31957e-01    1.31957e-01    2.40415e-01
    2.00000e+00    2.00000e+00   -4.56167e-04   -6.33928e-05    5.07250e+00    2.25428e+00    5.63015e-01    5.63344e-01    5.64573e-01    5.63572e-01    1.40779e-01    1.41034e-01    1.41203e-01    1.40703e-01    2.84882e+00    9.61658e-01    7.12205e-01    5.27827e-01    7.12205e-01    2.40415e-01    1.31957e-01    1.31957e-01    2.40415e-01
    3.00000e+00    2.00000e+00   -7.10743e-04   -3.67110e-05    5.07146e+00    2.25380e+00    5.62508e-01    5.63255e-01    5.64921e-01    5.63372e-01    1.40617e-01    1.41150e-01    1.41247e-01    1.40589e-01    2.84882e+00    9.61658e-01    7.12205e-01    5.27827e-01    7.12205e-01    2.40415e-01    1.31957e-01    1.31957e-01    2.40415e-01
    4.00000e+00    2.00000e+00   -1.02105e-03    1.95758e-05    5.07010e+00    2.25317e+00    5.61885e-01    5.63154e-01    5.65356e-01    5.63078e-01    1.40512e-01    1.41231e-01    1.41353e-01    1.40367e-01    2.84882e+00    9.61658e-01    7.12205e-01    5.27827e-01    7.12205e-01    2.40415e-01    1.31957e-01    1.31957e-01    2.40415e-01
    5.00000e+00    2.00000e+00   -1.36298e-03    6.08103e-05    5.06864e+00    2.25249e+00    5.61126e-01    5.63052e-01    5.65773e-01    5.62853e-01    1.40403e-01    1.41325e-01    1.41480e-01    1.40139e-01    2.84882e+00    9.61658e-01    7.12205e-01    5.27827e-01    7.12205e-01    2.40415e-01    1.31957e-01    1.31957e-01    2.40415e-01