TITLE="LBM output"
VARIABLES = "X", "Y", "U","V","density","f0","f1","f2","f3","f4","f5","f6","f7","f8","feq0","feq1","feq2","feq3","feq4","feq5","feq6","feq7","feq8",
ZONE T = "fluid", I=40, J=40, F=POINT
SOLUTIONTIME=177
    0.00000e+00    0.00000e+00    0.00000e+00    0.00000e+00    4.98952e+00    2.21778e+00    5.54385e-01    5.54384e-01    5.54385e-01    5.54384e-01    1.38487e-01    1.38611e-01    1.38487e-01    1.38611e-01    2.81190e+00    9.49195e-01    7.02975e-01    5.20987e-01    7.02975e-01    2.37299e-01    1.30247e-01    1.30247e-01    2.37299e-01
    1.00000e+00    0.00000e+00    0.00000e+00    0.00000e+00    4.98870e+00    2.21742e+00    5.54489e-01    5.54148e-01    5.54318e-01    5.54148e-01    1.38495e-01    1.38590e-01    1.38495e-01    1.38590e-01    2.81190e+00    9.49195e-01    7.02975e-01    5.20987e-01    7.02975e-01    2.37299e-01    1.30247e-01    1.30247e-01    2.37299e-01
    2.00000e+00    0.00000e+00    0.00000e+00    0.00000e+00    4.98842e+00    2.21727e+00    5.54262e-01    5.54173e-01    5.54333e-01    5.54173e-01    1.38517e-01    1.38586e-01    1.38517e-01    1.38586e-01    2.81190e+00    9.49195e-01    7.02975e-01    5.20987e-01    7.02975e-01    2.37299e-01    1.30247e-01    1.30247e-01    2.37299e-01
    3.00000e+00    0.00000e+00    0.00000e+00    0.00000e+00    4.98860e+00    2.21730e+00    5.54343e-01    5.54165e-01    5.54322e-01    5.54165e-01    1.38557e-01    1.38592e-01    1.38557e-01    1.38592e-01    2.81190e+00    9.49195e-01    7.02975e-01    5.20987e-01    7.02975e-01    2.37299e-01    1.30247e-01    1.30247e-01    2.37299e-01
    4.00000e+00    0.00000e+00    0.00000e+00    0.00000e+00    4.98858e+00    2.21728e+00    5.54309e-01    5.54194e-01    5.54322e-01    5.54194e-01    1.38603e-01    1.38539e-01    1.38603e-01    1.38539e-01    2.81190e+00    9.49195e-01    7.02975e-01    5.20987e-01    7.02975e-01    2.37299e-01    1.30247e-01    1.30247e-01    2.37299e-01
    5.00000e+00    0.00000e+00    0.00000e+00    0.00000e+00    4.98862e+00    2.21728e+00    5.54327e-01    5.54199e-01    5.54322e-01    5.54199e-01    1.38643e-01    1.38503e-01    1.38643e-01    1.38503e-01    2.81190e+00    9.49195e-01    7.02975e-01    5.20987e-01    7.02975e-01    2.37299e-01    1.30247e-01    1.30247e-01    2.37299e-01
    6.00000e+00    0.00000e+00    0.00000e+00    0.00000e+00    4.98875e+00    2.21734e+00    5.54312e-01    5.54219e-01    5.54349e-01    5.54219e-01    1.38688e-01    1.38465e-01    1.38688e-01    1.38465e-01    2.81190e+00    9.49195e-01    7.02975e-01    5.20987e-01    7.02975e-01    2.37299e-01    1.30247e-01    1.30247e-01    2.37299e-01
    7.00000e+00    0.00000e+00    0.00000e+00    0.00000e+00    4.98894e+00    2.21745e+00    5.54361e-01    5.54220e-01    5.54373e-01    5.54220e-01    1.38729e-01    1.38431e-01    1.38729e-01    1.38431e-01    2.81190e+00    9.49195e-01    7.02975e-01    5.20987e-01    7.02975e-01    2.37299e-01    1.30247e-01    1.30247e-01    2.37299e-01
    8.00000e+00    0.00000e+00    0.00000e+00    0.00000e+00    4.98930e+00    2.21763e+00    5.54367e-01    5.54255e-01    5.54442e-01    5.54255e-01    1.38766e-01    1.38406e-01    1.38766e-01    1.38406e-01    2.81190e+00    9.49195e-01    7.02975e-01    5.20987e-01    7.02975e-01    2.37299e-01    1.30247e-01    1.30247e-01    2.37299e-01
    9.00000e+00    0.00000e+00    0.00000e+00    0.00000e+00    4.98993e+00    2.21795e+00    5.54448e-01    5.54307e-01    5.54534e-01    5.54307e-01    1.38798e-01    1.38394e-01    1.38798e-01    1.38394e-01    2.81190e+00    9.49195e-01    7.02975e-01    5.20987e-01    7.02975e-01    2.37299e-01    1.30247e-01    1.30247e-01    2.37299e-01
    1.00000e+01    0.00000e+00    0.00000e+00    0.00000e+00    4.99086e+00    2.21841e+00    5.54526e-01    5.54399e-01    5.54675e-01    5.54399e-01    1.38826e-01    1.38400e-01    1.38826e-01    1.38400e-01    2.81190e+00    9.49195e-01    7.02975e-01    5.20987e-01    7.02975e-01    2.37299e-01    1.30247e-01    1.30247e-01    2.37299e-01
    1.10000e+01    0.00000e+00    0.00000e+00    0.00000e+00    4.99216e+00    2.21904e+00    5.54671e-01    5.54524e-01    5.54854e-01    5.54524e-01    1.38849e-01    1.38428e-01    1.38849e-01    1.38428e-01    2.81190e+00    9.49195e-01    7.02975e-01    5.20987e-01    7.02975e-01    2.37299e-01    1.30247e-01    1.30247e-01    2.37299e-01
    1.20000e+01    0.00000e+00    0.00000e+00    0.00000e+00    4.99382e+00    2.21983e+00    5.54839e-01    5.54695e-01    5.55077e-01    5.54695e-01    1.38862e-01    1.38481e-01    1.38862e-01    1.38481e-01    2.81190e+00    9.49195e-01    7.02975e-01    5.20987e-01    7.02975e-01    2.37299e-01    1.30247e-01    1.30247e-01    2.37299e-01
    1.30000e+01    0.00000e+00    0.00000e+00    0.00000e+00    4.99582e+00    2.22077e+00    5.55060e-01    5.54906e-01    5.55329e-01    5.54906e-01    1.38869e-01    1.38560e-01    1.38869e-01    1.38560e-01    2.81190e+00    9.49195e-01    7.02975e-01    5.20987e-01    7.02975e-01    2.37299e-01    1.30247e-01    1.30247e-01    2.37299e-01
    1.40000e+01    0.00000e+00    0.00000e+00    0.00000e+00    4.99808e+00    2.22180e+00    5.55302e-01    5.55155e-01    5.55601e-01    5.55155e-01    1.38871e-01    1.38665e-01    1.38871e-01    1.38665e-01    2.81190e+00    9.49195e-01    7.02975e-01    5.20987e-01    7.02975e-01    2.37299e-01    1.30247e-01    1.30247e-01    2.37299e-01
    1.50000e+01    0.00000e+00    0.00000e+00    0.00000e+00    5.00051e+00    2.22288e+00    5.55568e-01    5.55431e-01    5.55876e-01    5.55431e-01    1.38872e-01    1.38790e-01    1.38872e-01    1.38790e-01    2.81190e+00    9.49195e-01    7.02975e-01    5.20987e-01    7.02975e-01    2.37299e-01    1.30247e-01    1.30247e-01    2.37299e-01
    1.60000e+01    0.00000e+00    0.00000e+00    0.00000e+00    5.00298e+00    2.22395e+00    5.55835e-01    5.55724e-01    5.56141e-01    5.55724e-01    1.38875e-01    1.38929e-01    1.38875e-01    1.38929e-01    2.81190e+00    9.49195e-01    7.02975e-01    5.20987e-01    7.02975e-01    2.37299e-01    1.30247e-01    1.30247e-01    2.37299e-01
    1.70000e+01    0.00000e+00    0.00000e+00    0.00000e+00    5.00540e+00    2.22496e+00    5.56096e-01    5.56020e-01    5.56386e-01    5.56020e-01    1.38887e-01    1.39069e-01    1.38887e-01    1.39069e-01    2.81190e+00    9.49195e-01    7.02975e-01    5.20987e-01    7.02975e-01    2.37299e-01    1.30247e-01    1.30247e-01    2.37299e-01
    1.80000e+01    0.00000e+00    0.00000e+00    0.00000e+00    5.00770e+00    2.22589e+00    5.56338e-01    5.56312e-01    5.56610e-01    5.56312e-01    1.38913e-01    1.39201e-01    1.38913e-01    1.39201e-01    2.81190e+00    9.49195e-01    7.02975e-01    5.20987e-01    7.02975e-01    2.37299e-01    1.30247e-01    1.30247e-01    2.37299e-01
    1.90000e+01    0.00000e+00    0.00000e+00    0.00000e+00    5.00990e+00    2.22676e+00    5.56561e-01    5.56600e-01    5.56821e-01    5.56600e-01    1.38960e-01    1.39318e-01    1.38960e-01    1.39318e-01    2.81190e+00    9.49195e-01    7.02975e-01    5.20987e-01    7.02975e-01    2.37299e-01    1.30247e-01    1.30247e-01    2.37299e-01
    2.00000e+01    0.00000e+00    0.00000e+00    0.00000e+00    5.01209e+00    2.22760e+00    5.56769e-01    5.56893e-01    5.57034e-01    5.56893e-01    1.39036e-01    1.39414e-01    1.39036e-01    1.39414e-01    2.81190e+00    9.49195e-01    7.02975e-01    5.20987e-01    7.02975e-01    2.37299e-01    1.30247e-01    1.30247e-01    2.37299e-01
    2.10000e+01    0.00000e+00    0.00000e+00    0.00000e+00    5.01443e+00    2.22849e+00    5.56978e-01    5.57207e-01    5.57271e-01    5.57207e-01    1.39152e-01    1.39486e-01    1.39152e-01    1.39486e-01    2.81190e+00    9.49195e-01    7.02975e-01    5.20987e-01    7.02975e-01    2.37299e-01    1.30247e-01    1.30247e-01    2.37299e-01
    2.20000e+01    0.00000e+00    0.00000e+00    0.00000e+00    5.01709e+00    2.22952e+00    5.57208e-01    5.57561e-01    5.57553e-01    5.57561e-01    1.39312e-01    1.39535e-01    1.39312e-01    1.39535e-01    2.81190e+00    9.49195e-01    7.02975e-01    5.20987e-01    7.02975e-01    2.37299e-01    1.30247e-01    1.30247e-01    2.37299e-01
    2.30000e+01    0.00000e+00    0.00000e+00    0.00000e+00    5.02025e+00    2.23076e+00    5.57483e-01    5.57971e-01    5.57902e-01    5.57971e-01    1.39517e-01    1.39563e-01    1.39517e-01    1.39563e-01    2.81190e+00    9.49195e-01    7.02975e-01    5.20987e-01    7.02975e-01    2.37299e-01    1.30247e-01    1.30247e-01    2.37299e-01
    2.40000e+01    0.00000e+00    0.00000e+00    0.00000e+00    5.02399e+00    2.23229e+00    5.57824e-01    5.58443e-01    5.58319e-01    5.58443e-01    1.39763e-01    1.39575e-01    1.39763e-01    1.39575e-01    2.81190e+00    9.49195e-01    7.02975e-01    5.20987e-01    7.02975e-01    2.37299e-01    1.30247e-01    1.30247e-01    2.37299e-01
    2.50000e+01    0.00000e+00    0.00000e+00    0.00000e+00    5.02827e+00    2.23409e+00    5.58240e-01    5.58964e-01    5.58802e-01    5.58964e-01    1.40033e-01    1.39573e-01    1.40033e-01    1.39573e-01    2.81190e+00    9.49195e-01    7.02975e-01    5.20987e-01    7.02975e-01    2.37299e-01    1.30247e-01    1.30247e-01    2.37299e-01
    2.60000e+01    0.00000e+00    0.00000e+00    0.00000e+00    5.03288e+00    2.23609e+00    5.58725e-01    5.59507e-01    5.59312e-01    5.59507e-01    1.40304e-01    1.39566e-01    1.40304e-01    1.39566e-01    2.81190e+00    9.49195e-01    7.02975e-01    5.20987e-01    7.02975e-01    2.37299e-01    1.30247e-01    1.30247e-01    2.37299e-01
    2.70000e+01    0.00000e+00    0.00000e+00    0.00000e+00    5.03752e+00    2.23817e+00    5.59250e-01    5.60027e-01    5.59829e-01    5.60027e-01    1.40549e-01    1.39555e-01    1.40549e-01    1.39555e-01    2.81190e+00    9.49195e-01    7.02975e-01    5.20987e-01    7.02975e-01    2.37299e-01    1.30247e-01    1.30247e-01    2.37299e-01
    2.80000e+01    0.00000e+00    0.00000e+00    0.00000e+00    5.04174e+00    2.24014e+00    5.59780e-01    5.60483e-01    5.60272e-01    5.60483e-01    1.40744e-01    1.39547e-01    1.40744e-01    1.39547e-01    2.81190e+00    9.49195e-01    7.02975e-01    5.20987e-01    7.02975e-01    2.37299e-01    1.30247e-01    1.30247e-01    2.37299e-01
    2.90000e+01    0.00000e+00    0.00000e+00    0.00000e+00    5.04523e+00    2.24183e+00    5.60256e-01    5.60825e-01    5.60656e-01    5.60825e-01    1.40869e-01    1.39548e-01    1.40869e-01    1.39548e-01    2.81190e+00    9.49195e-01    7.02975e-01    5.20987e-01    7.02975e-01    2.37299e-01    1.30247e-01    1.30247e-01    2.37299e-01
    3.00000e+01    0.00000e+00    0.00000e+00    0.00000e+00    5.04774e+00    2.24312e+00    5.60649e-01    5.61056e-01    5.60892e-01    5.61056e-01    1.40918e-01    1.39566e-01    1.40918e-01    1.39566e-01    2.81190e+00    9.49195e-01    7.02975e-01    5.20987e-01    7.02975e-01    2.37299e-01    1.30247e-01    1.30247e-01    2.37299e-01
    3.10000e+01    0.00000e+00    0.00000e+00    0.00000e+00    5.04936e+00    2.24400e+00    5.60917e-01    5.61173e-01    5.61096e-01    5.61173e-01    1.40899e-01    1.39601e-01    1.40899e-01    1.39601e-01    2.81190e+00    9.49195e-01    7.02975e-01    5.20987e-01    7.02975e-01    2.37299e-01    1.30247e-01    1.30247e-01    2.37299e-01
    3.20000e+01    0.00000e+00    0.00000e+00    0.00000e+00    5.05015e+00    2.24448e+00    5.61101e-01    5.61224e-01    5.61124e-01    5.61224e-01    1.40833e-01    1.39664e-01    1.40833e-01    1.39664e-01    2.81190e+00    9.49195e-01    7.02975e-01    5.20987e-01    7.02975e-01    2.37299e-01    1.30247e-01    1.30247e-01    2.37299e-01
    3.30000e+01    0.00000e+00    0.00000e+00    0.00000e+00    5.05047e+00    2.24472e+00    5.61161e-01    5.61195e-01    5.61222e-01    5.61195e-01    1.40740e-01    1.39748e-01    1.40740e-01    1.39748e-01    2.81190e+00    9.49195e-01    7.02975e-01    5.20987e-01    7.02975e-01    2.37299e-01    1.30247e-01    1.30247e-01    2.37299e-01
    3.40000e+01    0.00000e+00    0.00000e+00    0.00000e+00    5.05067e+00    2.24484e+00    5.61213e-01    5.61211e-01    5.61205e-01    5.61211e-01    1.40637e-01    1.39855e-01    1.40637e-01    1.39855e-01    2.81190e+00    9.49195e-01    7.02975e-01    5.20987e-01    7.02975e-01    2.37299e-01    1.30247e-01    1.30247e-01    2.37299e-01
    3.50000e+01    0.00000e+00    0.00000e+00    0.00000e+00    5.05050e+00    2.24477e+00    5.61210e-01    5.61189e-01    5.61168e-01    5.61189e-01    1.40524e-01    1.39963e-01    1.40524e-01    1.39963e-01    2.81190e+00    9.49195e-01    7.02975e-01    5.20987e-01    7.02975e-01    2.37299e-01    1.30247e-01    1.30247e-01    2.37299e-01
    3.60000e+01    0.00000e+00    0.00000e+00    0.00000e+00    5.05071e+00    2.24486e+00    5.61181e-01    5.61195e-01    5.61280e-01    5.61195e-01    1.40429e-01    1.40069e-01    1.40429e-01    1.40069e-01    2.81190e+00    9.49195e-01    7.02975e-01    5.20987e-01    7.02975e-01    2.37299e-01    1.30247e-01    1.30247e-01    2.37299e-01
    3.70000e+01    0.00000e+00    0.00000e+00    0.00000e+00    5.05086e+00    2.24489e+00    5.61240e-01    5.61239e-01    5.61175e-01    5.61239e-01    1.40361e-01    1.40179e-01    1.40361e-01    1.40179e-01    2.81190e+00    9.49195e-01    7.02975e-01    5.20987e-01    7.02975e-01    2.37299e-01    1.30247e-01    1.30247e-01    2.37299e-01
    3.80000e+01    0.00000e+00    0.00000e+00    0.00000e+00    5.05083e+00    2.24484e+00    5.61193e-01    5.61214e-01    5.61249e-01    5.61214e-01    1.40293e-01    1.40268e-01    1.40293e-01    1.40268e-01    2.81190e+00    9.49195e-01    7.02975e-01    5.20987e-01    7.02975e-01    2.37299e-01    1.30247e-01    1.30247e-01    2.37299e-01
    3.90000e+01    0.00000e+00    0.00000e+00    0.00000e+00    5.05109e+00    2.24495e+00    5.61221e-01    5.61232e-01    5.61221e-01    5.61232e-01    1.40309e-01    1.40311e-01    1.40309e-01    1.40311e-01    2.81190e+00    9.49195e-01    7.02975e-01    5.20987e-01    7.02975e-01    2.37299e-01    1.30247e-01    1.30247e-01    2.37299e-01
    0.00000e+00    1.00000e+00    0.00000e+00    0.00000e+00    4.98868e+00    2.21742e+00    5.54158e-01    5.54491e-01    5.54158e-01    5.54315e-01    1.38484e-01    1.38588e-01    1.38484e-01    1.38588e-01    2.81190e+00    9.49195e-01    7.02975e-01    5.20987e-01    7.02975e-01    2.37299e-01    1.30247e-01    1.30247e-01    2.37299e-01
    1.00000e+00    1.00000e+00    1.42592e-04    1.78248e-04    4.98862e+00    2.21738e+00    5.54503e-01    5.54512e-01    5.54053e-01    5.53935e-01    1.38702e-01    1.38576e-01    1.38415e-01    1.38550e-01    2.81190e+00    9.49195e-01    7.02975e-01    5.20987e-01    7.02975e-01    2.37299e-01    1.30247e-01    1.30247e-01    2.37299e-01
    2.00000e+00    1.00000e+00    1.42011e-04    1.78834e-04    4.98854e+00    2.21731e+00    5.54634e-01    5.54432e-01    5.54147e-01    5.53851e-01    1.38660e-01    1.38575e-01    1.38394e-01    1.38530e-01    2.81190e+00    9.49195e-01    7.02975e-01    5.20987e-01    7.02975e-01    2.37299e-01    1.30247e-01    1.30247e-01    2.37299e-01
    3.00000e+00    1.00000e+00    6.83122e-05    1.85358e-04    4.98854e+00    2.21728e+00    5.54511e-01    5.54451e-01    5.54282e-01    5.53820e-01    1.38627e-01    1.38614e-01    1.38424e-01    1.38522e-01    2.81190e+00    9.49195e-01    7.02975e-01    5.20987e-01    7.02975e-01    2.37299e-01    1.30247e-01    1.30247e-01    2.37299e-01
    4.00000e+00    1.00000e+00   -1.52138e-05    1.64822e-04    4.98858e+00    2.21728e+00    5.54373e-01    5.54419e-01    5.54430e-01    5.53859e-01    1.38596e-01    1.38644e-01    1.38474e-01    1.38504e-01    2.81190e+00    9.49195e-01    7.02975e-01    5.20987e-01    7.02975e-01    2.37299e-01    1.30247e-01    1.30247e-01    2.37299e-01
    5.00000e+00    1.00000e+00   -9.99448e-05    1.55169e-04    4.98865e+00    2.21730e+00    5.54230e-01    5.54420e-01    5.54575e-01    5.53895e-01    1.38557e-01    1.38682e-01    1.38509e-01    1.38482e-01    2.81190e+00    9.49195e-01    7.02975e-01    5.20987e-01    7.02975e-01    2.37299e-01    1.30247e-01    1.30247e-01    2.37299e-01
    6.00000e+00    1.00000e+00   -1.82604e-04    1.55630e-04    4.98878e+00    2.21736e+00    5.54105e-01    5.54431e-01    5.54731e-01    5.53903e-01    1.38525e-01    1.38721e-01    1.38544e-01    1.38455e-01    2.81190e+00    9.49195e-01    7.02975e-01    5.20987e-01    7.02975e-01    2.37299e-01    1.30247e-01    1.30247e-01    2.37299e-01
    7.00000e+00    1.00000e+00   -2.55855e-04    1.62973e-04    4.98901e+00    2.21748e+00    5.53991e-01    5.54483e-01    5.54868e-01    5.53933e-01    1.38497e-01    1.38760e-01    1.38565e-01    1.38429e-01    2.81190e+00    9.49195e-01    7.02975e-01    5.20987e-01    7.02975e-01    2.37299e-01    1.30247e-01    1.30247e-01    2.37299e-01
    8.00000e+00    1.00000e+00   -3.08923e-04    1.69702e-04    4.98941e+00    2.21769e+00    5.53932e-01    5.54541e-01    5.54989e-01    5.53974e-01    1.38480e-01    1.38803e-01    1.38582e-01    1.38421e-01    2.81190e+00    9.49195e-01    7.02975e-01    5.20987e-01    7.02975e-01    2.37299e-01    1.30247e-01    1.30247e-01    2.37299e-01
    9.00000e+00    1.00000e+00   -3.35839e-04    1.81451e-04    4.99006e+00    2.21801e+00    5.53937e-01    5.54644e-01    5.55089e-01    5.54042e-01    1.38476e-01    1.38844e-01    1.38587e-01    1.38430e-01    2.81190e+00    9.49195e-01    7.02975e-01    5.20987e-01    7.02975e-01    2.37299e-01    1.30247e-01    1.30247e-01    2.37299e-01
    1.00000e+01    1.00000e+00   -3.32002e-04    1.96005e-04    4.99102e+00    2.21848e+00    5.54030e-01    5.54777e-01    5.55172e-01    5.54132e-01    1.38494e-01    1.38885e-01    1.38585e-01    1.38461e-01    2.81190e+00    9.49195e-01    7.02975e-01    5.20987e-01    7.02975e-01    2.37299e-01    1.30247e-01    1.30247e-01    2.37299e-01
    1.10000e+01    1.00000e+00   -2.93800e-04    2.12889e-04    4.99231e+00    2.21910e+00    5.54213e-01    5.54961e-01    5.55229e-01    5.54264e-01    1.38531e-01    1.38923e-01    1.38573e-01    1.38515e-01    2.81190e+00    9.49195e-01    7.02975e-01    5.20987e-01    7.02975e-01    2.37299e-01    1.30247e-01    1.30247e-01    2.37299e-01
    1.20000e+01    1.00000e+00   -2.16492e-04    2.27597e-04    4.99394e+00    2.21988e+00    5.54498e-01    5.55176e-01    5.55256e-01    5.54436e-01    1.38592e-01    1.38957e-01    1.38555e-01    1.38597e-01    2.81190e+00    9.49195e-01    7.02975e-01    5.20987e-01    7.02975e-01    2.37299e-01    1.30247e-01    1.30247e-01    2.37299e-01
    1.30000e+01    1.00000e+00   -1.00039e-04    2.38431e-04    4.99589e+00    2.22078e+00    5.54886e-01    5.55422e-01    5.55251e-01    5.54650e-01    1.38677e-01    1.38982e-01    1.38535e-01    1.38705e-01    2.81190e+00    9.49195e-01    7.02975e-01    5.20987e-01    7.02975e-01    2.37299e-01    1.30247e-01    1.30247e-01    2.37299e-01
    1.40000e+01    1.00000e+00    5.03727e-05    2.40301e-04    4.99808e+00    2.22178e+00    5.55363e-01    5.55681e-01    5.55218e-01    5.54905e-01    1.38782e-01    1.38997e-01    1.38516e-01    1.38838e-01    2.81190e+00    9.49195e-01    7.02975e-01    5.20987e-01    7.02975e-01    2.37299e-01    1.30247e-01    1.30247e-01    2.37299e-01
    1.50000e+01    1.00000e+00    2.23884e-04    2.29726e-04    5.00044e+00    2.22283e+00    5.55904e-01    5.55940e-01    5.55171e-01    5.55199e-01    1.38899e-01    1.39003e-01    1.38502e-01    1.38992e-01    2.81190e+00    9.49195e-01    7.02975e-01    5.20987e-01    7.02975e-01    2.37299e-01    1.30247e-01    1.30247e-01    2.37299e-01
    1.60000e+01    1.00000e+00    4.04986e-04    2.05985e-04    5.00286e+00    2.22388e+00    5.56475e-01    5.56182e-01    5.55127e-01    5.55518e-01    1.39020e-01    1.39004e-01    1.38498e-01    1.39159e-01    2.81190e+00    9.49195e-01    7.02975e-01    5.20987e-01    7.02975e-01    2.37299e-01    1.30247e-01    1.30247e-01    2.37299e-01
    1.70000e+01    1.00000e+00    5.75235e-04    1.70529e-04    5.00526e+00    2.22489e+00    5.57036e-01    5.56400e-01    5.55109e-01    5.55850e-01    1.39137e-01    1.39004e-01    1.38509e-01    1.39329e-01    2.81190e+00    9.49195e-01    7.02975e-01    5.20987e-01    7.02975e-01    2.37299e-01    1.30247e-01    1.30247e-01    2.37299e-01
    1.80000e+01    1.00000e+00    7.15636e-04    1.24291e-04    5.00758e+00    2.22583e+00    5.57548e-01    5.56589e-01    5.55143e-01    5.56187e-01    1.39240e-01    1.39011e-01    1.38540e-01    1.39490e-01    2.81190e+00    9.49195e-01    7.02975e-01    5.20987e-01    7.02975e-01    2.37299e-01    1.30247e-01    1.30247e-01    2.37299e-01
    1.90000e+01    1.00000e+00    8.07997e-04    6.90584e-05    5.00984e+00    2.22672e+00    5.57982e-01    5.56755e-01    5.55262e-01    5.56530e-01    1.39323e-01    1.39030e-01    1.38599e-01    1.39634e-01    2.81190e+00    9.49195e-01    7.02975e-01    5.20987e-01    7.02975e-01    2.37299e-01    1.30247e-01    1.30247e-01    2.37299e-01
    2.00000e+01    1.00000e+00    8.36116e-04    7.00498e-06    5.01213e+00    2.22761e+00    5.58319e-01    5.56909e-01    5.55502e-01    5.56882e-01    1.39385e-01    1.39073e-01    1.38694e-01    1.39755e-01    2.81190e+00    9.49195e-01    7.02975e-01    5.20987e-01    7.02975e-01    2.37299e-01    1.30247e-01    1.30247e-01    2.37299e-01
    2.10000e+01    1.00000e+00    7.87051e-04   -6.09733e-05    5.01458e+00    2.22855e+00    5.58549e-01    5.57069e-01    5.55896e-01    5.57260e-01    1.39423e-01    1.39145e-01    1.38833e-01    1.39850e-01    2.81190e+00    9.49195e-01    7.02975e-01    5.20987e-01    7.02975e-01    2.37299e-01    1.30247e-01    1.30247e-01    2.37299e-01
    2.20000e+01    1.00000e+00    6.53224e-04   -1.33291e-04    5.01735e+00    2.22963e+00    5.58673e-01    5.57258e-01    5.56474e-01    5.57682e-01    1.39439e-01    1.39256e-01    1.39023e-01    1.39918e-01    2.81190e+00    9.49195e-01    7.02975e-01    5.20987e-01    7.02975e-01    2.37299e-01    1.30247e-01    1.30247e-01    2.37299e-01
    2.30000e+01    1.00000e+00    4.35229e-04   -2.05476e-04    5.02059e+00    2.23092e+00    5.58701e-01    5.57500e-01    5.57242e-01    5.58156e-01    1.39438e-01    1.39409e-01    1.39262e-01    1.39960e-01    2.81190e+00    9.49195e-01    7.02975e-01    5.20987e-01    7.02975e-01    2.37299e-01    1.30247e-01    1.30247e-01    2.37299e-01
    2.40000e+01    1.00000e+00    1.44218e-04   -2.72237e-04    5.02434e+00    2.23246e+00    5.58652e-01    5.57812e-01    5.58183e-01    5.58684e-01    1.39426e-01    1.39603e-01    1.39546e-01    1.39980e-01    2.81190e+00    9.49195e-01    7.02975e-01    5.20987e-01    7.02975e-01    2.37299e-01    1.30247e-01    1.30247e-01    2.37299e-01
    2.50000e+01    1.00000e+00   -1.97099e-04   -3.26748e-04    5.02856e+00    2.23424e+00    5.58550e-01    5.58202e-01    5.59247e-01    5.59251e-01    1.39410e-01    1.39828e-01    1.39854e-01    1.39977e-01    2.81190e+00    9.49195e-01    7.02975e-01    5.20987e-01    7.02975e-01    2.37299e-01    1.30247e-01    1.30247e-01    2.37299e-01
    2.60000e+01    1.00000e+00   -5.56456e-04   -3.61109e-04    5.03305e+00    2.23620e+00    5.58427e-01    5.58659e-01    5.60351e-01    5.59822e-01    1.39399e-01    1.40069e-01    1.40165e-01    1.39958e-01    2.81190e+00    9.49195e-01    7.02975e-01    5.20987e-01    7.02975e-01    2.37299e-01    1.30247e-01    1.30247e-01    2.37299e-01
    2.70000e+01    1.00000e+00   -8.95614e-04   -3.68853e-04    5.03749e+00    2.23819e+00    5.58310e-01    5.59162e-01    5.61396e-01    5.60351e-01    1.39401e-01    1.40303e-01    1.40448e-01    1.39925e-01    2.81190e+00    9.49195e-01    7.02975e-01    5.20987e-01    7.02975e-01    2.37299e-01    1.30247e-01    1.30247e-01    2.37299e-01
    2.80000e+01    1.00000e+00   -1.17621e-03   -3.50841e-04    5.04154e+00    2.24008e+00    5.58230e-01    5.59664e-01    5.62278e-01    5.60799e-01    1.39425e-01    1.40506e-01    1.40682e-01    1.39882e-01    2.81190e+00    9.49195e-01    7.02975e-01    5.20987e-01    7.02975e-01    2.37299e-01    1.30247e-01    1.30247e-01    2.37299e-01
    2.90000e+01    1.00000e+00   -1.36759e-03   -3.07335e-04    5.04490e+00    2.24170e+00    5.58212e-01    5.60139e-01    5.62917e-01    5.61139e-01    1.39468e-01    1.40655e-01    1.40840e-01    1.39834e-01    2.81190e+00    9.49195e-01    7.02975e-01    5.20987e-01    7.02975e-01    2.37299e-01    1.30247e-01    1.30247e-01    2.37299e-01
    3.00000e+01    1.00000e+00   -1.45500e-03   -2.49947e-04    5.04740e+00    2.24296e+00    5.58278e-01    5.60525e-01    5.63281e-01    5.61349e-01    1.39535e-01    1.40748e-01    1.40925e-01    1.39797e-01    2.81190e+00    9.49195e-01    7.02975e-01    5.20987e-01    7.02975e-01    2.37299e-01    1.30247e-01    1.30247e-01    2.37299e-01
    3.10000e+01    1.00000e+00   -1.43490e-03   -1.90334e-04    5.04903e+00    2.24383e+00    5.58431e-01    5.60832e-01    5.63361e-01    5.61467e-01    1.39620e-01    1.40771e-01    1.40940e-01    1.39776e-01    2.81190e+00    9.49195e-01    7.02975e-01    5.20987e-01    7.02975e-01    2.37299e-01    1.30247e-01    1.30247e-01    2.37299e-01
    3.20000e+01    1.00000e+00   -1.32076e-03   -1.41706e-04    5.04994e+00    2.24436e+00    5.58683e-01    5.61013e-01    5.63221e-01    5.61505e-01    1.39723e-01    1.40743e-01    1.40901e-01    1.39789e-01    2.81190e+00    9.49195e-01    7.02975e-01    5.20987e-01    7.02975e-01    2.37299e-01    1.30247e-01    1.30247e-01    2.37299e-01
    3.30000e+01    1.00000e+00   -1.13442e-03   -9.94633e-05    5.05037e+00    2.24464e+00    5.59012e-01    5.61156e-01    5.62902e-01    5.61518e-01    1.39823e-01    1.40675e-01    1.40813e-01    1.39826e-01    2.81190e+00    9.49195e-01    7.02975e-01    5.20987e-01    7.02975e-01    2.37299e-01    1.30247e-01    1.30247e-01    2.37299e-01
    3.40000e+01    1.00000e+00   -9.07493e-04   -8.19064e-05    5.05052e+00    2.24476e+00    5.59415e-01    5.61198e-01    5.62528e-01    5.61496e-01    1.39922e-01    1.40582e-01    1.40715e-01    1.39905e-01    2.81190e+00    9.49195e-01    7.02975e-01    5.20987e-01    7.02975e-01    2.37299e-01    1.30247e-01    1.30247e-01    2.37299e-01
    3.50000e+01    1.00000e+00   -6.69428e-04   -7.44318e-05    5.05054e+00    2.24478e+00    5.59820e-01    5.61192e-01    5.62118e-01    5.61492e-01    1.40024e-01    1.40505e-01    1.40604e-01    1.40002e-01    2.81190e+00    9.49195e-01    7.02975e-01    5.20987e-01    7.02975e-01    2.37299e-01    1.30247e-01    1.30247e-01    2.37299e-01
    3.60000e+01    1.00000e+00   -4.16930e-04   -8.00179e-05    5.05061e+00    2.24481e+00    5.60236e-01    5.61229e-01    5.61665e-01    5.61526e-01    1.40112e-01    1.40410e-01    1.40503e-01    1.40125e-01    2.81190e+00    9.49195e-01    7.02975e-01    5.20987e-01    7.02975e-01    2.37299e-01    1.30247e-01    1.30247e-01    2.37299e-01
    3.70000e+01    1.00000e+00   -1.88278e-04   -7.39427e-05    5.05072e+00    2.24483e+00    5.60698e-01    5.61201e-01    5.61358e-01    5.61466e-01    1.40201e-01    1.40328e-01    1.40400e-01    1.40237e-01    2.81190e+00    9.49195e-01    7.02975e-01    5.20987e-01    7.02975e-01    2.37299e-01    1.30247e-01    1.30247e-01    2.37299e-01
    3.80000e+01    1.00000e+00   -5.14885e-05   -3.30328e-05    5.05078e+00    2.24483e+00    5.61046e-01    5.61199e-01    5.61215e-01    5.61336e-01    1.40256e-01    1.40307e-01    1.40317e-01    1.40276e-01    2.81190e+00    9.49195e-01    7.02975e-01    5.20987e-01    7.02975e-01    2.37299e-01    1.30247e-01    1.30247e-01    2.37299e-01
    3.90000e+01    1.00000e+00    0.00000e+00    0.00000e+00    5.05077e+00    2.24481e+00    5.61183e-01    5.61239e-01    5.61183e-01    5.61167e-01    1.40310e-01    1.40286e-01    1.40310e-01    1.40286e-01    2.81190e+00    9.49195e-01    7.02975e-01    5.20987e-01    7.02975e-01    2.37299e-01    1.30247e-01    1.30247e-01    2.37299e-01
    0.00000e+00    2.00000e+00    0.00000e+00    0.00000e+00    4.98831e+00    2.21723e+00    5.54173e-01    5.54258e-01    5.54173e-01    5.54311e-01    1.38464e-01    1.38616e-01    1.38464e-01    1.38616e-01    2.81190e+00    9.49195e-01    7.02975e-01    5.20987e-01    7.02975e-01    2.37299e-01    1.30247e-01    1.30247e-01    2.37299e-01
    1.00000e+00    2.00000e+00    1.29703e-04    2.57325e-04    4.98843e+00    2.21727e+00    5.54417e-01    5.54724e-01    5.54011e-01    5.53853e-01    1.38668e-01    1.38613e-01    1.38341e-01    1.38527e-01    2.81190e+00    9.49195e-01    7.02975e-01    5.20987e-01    7.02975e-01    2.37299e-01    1.30247e-01    1.30247e-01    2.37299e-01
    2.00000e+00    2.00000e+00    1.81791e-04    3.46027e-04    4.98846e+00    2.21727e+00    5.54627e-01    5.54767e-01    5.54017e-01    5.53617e-01    1.38732e-01    1.38639e-01    1.38295e-01    1.38499e-01    2.81190e+00    9.49195e-01    7.02975e-01    5.20987e-01    7.02975e-01    2.37299e-01    1.30247e-01    1.30247e-01    2.37299e-01
    3.00000e+00    2.00000e+00    1.54556e-04    3.76494e-04    4.98848e+00    2.21726e+00    5.54622e-01    5.54768e-01    5.54103e-01    5.53528e-01    1.38758e-01    1.38662e-01    1.38313e-01    1.38468e-01    2.81190e+00    9.49195e-01    7.02975e-01    5.20987e-01    7.02975e-01    2.37299e-01    1.30247e-01    1.30247e-01    2.37299e-01
    4.00000e+00    2.00000e+00    8.98454e-05    3.60533e-04    4.98855e+00    2.21727e+00    5.54543e-01    5.54729e-01    5.54239e-01    5.53545e-01    1.38731e-01    1.38689e-01    1.38352e-01    1.38453e-01    2.81190e+00    9.49195e-01    7.02975e-01    5.20987e-01    7.02975e-01    2.37299e-01    1.30247e-01    1.30247e-01    2.37299e-01
    5.00000e+00    2.00000e+00    8.83107e-06    3.40124e-04    4.98866e+00    2.21731e+00    5.54423e-01    5.54712e-01    5.54386e-01    5.53595e-01    1.38681e-01    1.38724e-01    1.38387e-01    1.38438e-01    2.81190e+00    9.49195e-01    7.02975e-01    5.20987e-01    7.02975e-01    2.37299e-01    1.30247e-01    1.30247e-01    2.37299e-01